REMARK SMILES N#C[C@@H]1C[C@H]2CSCC3(CC3)c3cnc4[nH]cc(c4n3)C(=O)N[C@H](C3CC3)C(=O)N2C1
REMARK SMILES IDX 12 1 13 2 14 3 15 4 16 5 17 6 18 7 19 8 20 9 21 11 23 12
REMARK SMILES IDX 22 13 24 15 28 16 29 17 30 18 1 19 2 20 3 21 4 22 31 23 5 24
REMARK SMILES IDX 25 26 26 27 27 28 9 29 10 30 11 31 8 32 7 33 6 34
REMARK H PARENT 16 10 23 14
REMARK Flexibility Score:  122.900
ROOT
ATOM      1  C   UNL     1       3.021  -0.921  -0.181  1.00  0.00     0.067 A
ATOM      2  C   UNL     1       4.122  -1.599   0.366  1.00  0.00     0.138 A
ATOM      3  N   UNL     1       4.071  -2.722   1.140  1.00  0.00    -0.235 NA
ATOM      4  C   UNL     1       2.791  -3.085   1.353  1.00  0.00     0.156 A
ATOM      5  N   UNL     1       2.354  -4.125   2.126  1.00  0.00    -0.344 N
ATOM      6  C   UNL     1       0.978  -4.123   2.168  1.00  0.00     0.100 A
ATOM      7  C   UNL     1       0.515  -3.077   1.380  1.00  0.00     0.085 A
ATOM      8  C   UNL     1       1.670  -2.449   0.846  1.00  0.00     0.120 A
ATOM      9  N   UNL     1       1.761  -1.369   0.028  1.00  0.00    -0.246 NA
ATOM     10  H   UNL     1       2.967  -4.758   2.620  1.00  0.00     0.168 HD
ENDROOT
BRANCH   7  11
ATOM     11  C   UNL     1      -0.870  -2.660   1.209  1.00  0.00     0.255 C
ATOM     12  N   UNL     1      -1.035  -1.678   0.269  1.00  0.00    -0.340 N
ATOM     13  O   UNL     1      -1.788  -3.112   1.886  1.00  0.00    -0.269 OA
ATOM     14  H   UNL     1      -0.215  -1.379  -0.260  1.00  0.00     0.164 HD
BRANCH  12  15
ATOM     15  C   UNL     1      -2.239  -0.886   0.113  1.00  0.00     0.175 C
BRANCH  15  16
ATOM     16  C   UNL     1      -1.736   0.455  -0.490  1.00  0.00     0.245 C
ATOM     17  O   UNL     1      -1.314   0.525  -1.649  1.00  0.00    -0.272 OA
BRANCH  16  18
ATOM     18  N   UNL     1      -1.618   1.545   0.358  1.00  0.00    -0.336 N
ATOM     19  N   UNL     1      -4.555   4.204   0.846  1.00  0.00    -0.198 NA
ATOM     20  C   UNL     1      -3.580   3.764   1.295  1.00  0.00     0.067 C
ATOM     21  C   UNL     1      -2.343   3.214   1.871  1.00  0.00     0.114 C
ATOM     22  C   UNL     1      -1.106   3.735   1.138  1.00  0.00     0.046 C
ATOM     23  C   UNL     1      -2.260   1.705   1.655  1.00  0.00     0.138 C
ATOM     24  C   UNL     1      -0.937   2.778  -0.058  1.00  0.00     0.096 C
ATOM     25  G   UNL     1       0.537   2.611  -0.506  1.00  0.00     0.000 C
ENDBRANCH  16  18
ENDBRANCH  15  16
BRANCH  15  26
ATOM     26  C   UNL     1      -3.255  -1.661  -0.686  1.00  0.00     0.021 C
ATOM     27  C   UNL     1      -3.101  -1.961  -2.158  1.00  0.00     0.006 C
ATOM     28  C   UNL     1      -4.177  -1.015  -1.693  1.00  0.00     0.006 C
ENDBRANCH  15  26
ENDBRANCH  12  15
ENDBRANCH   7  11
BRANCH   1  29
ATOM     29  C   UNL     1       3.179   0.356  -1.008  1.00  0.00     0.023 C
ATOM     30  C   UNL     1       4.101   0.292  -2.223  1.00  0.00     0.015 C
ATOM     31  C   UNL     1       2.621   0.360  -2.426  1.00  0.00     0.015 C
BRANCH  29  32
ATOM     32  C   UNL     1       3.159   1.655  -0.221  1.00  0.00     0.083 C
BRANCH  32  33
ATOM     33  S   UNL     1       1.657   1.919   0.770  1.00  0.00    -0.159 SA
BRANCH  33  34
ATOM     34  C   UNL     1       0.537   2.611  -0.506  1.00  0.00     0.094 C
ATOM     35  G   UNL     1      -0.937   2.778  -0.058  1.00  0.00     0.000 C
ENDBRANCH  33  34
ENDBRANCH  32  33
ENDBRANCH  29  32
ENDBRANCH   1  29
TORSDOF 1
