REMARK SMILES C1=C2/COCc3ccc(s3)-c3ccnc(n3)Nc3ccc(c(c3)COC/1)OCCN1CCC[C@@H]1CSC2
REMARK SMILES IDX 18 1 19 2 20 3 21 4 22 5 23 6 24 7 25 8 26 9 1 10 2 11 37 13
REMARK SMILES IDX 36 14 35 15 27 17 28 18 29 19 30 20 31 21 34 22 32 23 33 24
REMARK SMILES IDX 17 26 15 28 14 29 16 30 13 31 11 32 12 33 9 34 8 35 10 36
REMARK SMILES IDX 7 37 6 38 5 39 4 40 3 41
REMARK H PARENT 17 27
REMARK Flexibility Score:   91.800
ROOT
ATOM      1  C   UNL     1       1.966  -3.498   0.365  1.00  0.00     0.042 A
ATOM      2  C   UNL     1       0.850  -4.320   0.547  1.00  0.00     0.030 A
ATOM      3  C   UNL     1      -0.312  -4.129  -0.211  1.00  0.00     0.049 A
ATOM      4  C   UNL     1      -0.375  -3.102  -1.155  1.00  0.00     0.125 A
ATOM      5  C   UNL     1       0.761  -2.338  -1.443  1.00  0.00     0.022 A
ATOM      6  C   UNL     1       1.913  -2.549  -0.664  1.00  0.00     0.036 A
ENDROOT
BRANCH   5   7
ATOM      7  C   UNL     1       0.795  -1.232  -2.463  1.00  0.00     0.200 C
BRANCH   7   8
ATOM      8  O   UNL     1       0.702  -0.006  -1.746  1.00  0.00    -0.373 OA
BRANCH   8   9
ATOM      9  C   UNL     1       0.420   1.112  -2.574  1.00  0.00     0.188 C
BRANCH   9  10
ATOM     10  C   UNL     1       0.699   2.352  -1.779  1.00  0.00     0.003 C
ATOM     11  C   UNL     1       0.070   2.770  -0.657  1.00  0.00    -0.036 C
ATOM     12  G   UNL     1       0.493   4.007   0.114  1.00  0.00     0.000 C
BRANCH  11  13
ATOM     13  C   UNL     1      -1.069   2.005  -0.016  1.00  0.00     0.102 C
BRANCH  13  14
ATOM     14  S   UNL     1      -2.664   2.660  -0.600  1.00  0.00    -0.156 SA
BRANCH  14  15
ATOM     15  C   UNL     1      -3.810   1.804   0.549  1.00  0.00     0.089 C
ATOM     16  G   UNL     1      -3.812   0.255   0.498  1.00  0.00     0.000 C
ENDBRANCH  14  15
ENDBRANCH  13  14
ENDBRANCH  11  13
ENDBRANCH   9  10
ENDBRANCH   8   9
ENDBRANCH   7   8
ENDBRANCH   5   7
BRANCH   4  17
ATOM     17  O   UNL     1      -1.605  -2.876  -1.725  1.00  0.00    -0.492 OA
BRANCH  17  18
ATOM     18  C   UNL     1      -2.103  -1.581  -1.337  1.00  0.00     0.245 C
BRANCH  18  19
ATOM     19  C   UNL     1      -3.618  -1.631  -1.087  1.00  0.00     0.126 C
BRANCH  19  20
ATOM     20  N   UNL     1      -4.174  -0.285  -0.834  1.00  0.00    -0.296 NA
ATOM     21  C   UNL     1      -5.644  -0.302  -0.862  1.00  0.00     0.085 C
ATOM     22  C   UNL     1      -3.812   0.255   0.498  1.00  0.00     0.066 C
ATOM     23  C   UNL     1      -6.103  -0.565   0.565  1.00  0.00     0.017 C
ATOM     24  C   UNL     1      -4.881  -0.317   1.438  1.00  0.00     0.021 C
ATOM     25  G   UNL     1      -3.810   1.804   0.549  1.00  0.00     0.000 C
ENDBRANCH  19  20
ENDBRANCH  18  19
ENDBRANCH  17  18
ENDBRANCH   4  17
BRANCH   1  26
ATOM     26  N   UNL     1       3.020  -3.549   1.290  1.00  0.00    -0.324 N
ATOM     27  H   UNL     1       3.130  -4.381   1.847  1.00  0.00     0.170 HD
BRANCH  26  28
ATOM     28  C   UNL     1       3.854  -2.528   1.747  1.00  0.00     0.227 A
ATOM     29  N   UNL     1       4.672  -2.820   2.770  1.00  0.00    -0.221 NA
ATOM     30  N   UNL     1       3.765  -1.302   1.223  1.00  0.00    -0.212 NA
ATOM     31  C   UNL     1       5.401  -1.804   3.283  1.00  0.00     0.117 A
ATOM     32  C   UNL     1       4.489  -0.312   1.772  1.00  0.00     0.086 A
ATOM     33  C   UNL     1       5.344  -0.509   2.826  1.00  0.00     0.050 A
BRANCH  32  34
ATOM     34  C   UNL     1       4.277   0.975   1.117  1.00  0.00     0.053 A
ATOM     35  C   UNL     1       4.479   1.291  -0.212  1.00  0.00     0.022 A
ATOM     36  S   UNL     1       3.587   2.288   1.970  1.00  0.00    -0.136 S
ATOM     37  C   UNL     1       4.032   2.602  -0.532  1.00  0.00     0.018 A
ATOM     38  C   UNL     1       3.457   3.239   0.549  1.00  0.00     0.031 A
BRANCH  38  39
ATOM     39  C   UNL     1       2.780   4.574   0.577  1.00  0.00     0.207 C
BRANCH  39  40
ATOM     40  O   UNL     1       1.713   4.572  -0.378  1.00  0.00    -0.372 OA
BRANCH  40  41
ATOM     41  C   UNL     1       0.493   4.007   0.114  1.00  0.00     0.192 C
ATOM     42  G   UNL     1       0.070   2.770  -0.657  1.00  0.00     0.000 C
ENDBRANCH  40  41
ENDBRANCH  39  40
ENDBRANCH  38  39
ENDBRANCH  32  34
ENDBRANCH  26  28
ENDBRANCH   1  26
TORSDOF 0
