REMARK SMILES O=C1Nc2c[nH]nc2-c2nc3ccc(cc3[nH]2)CN2CCOC[C@H]2CNCOCCC2(CC2)N1
REMARK SMILES IDX 19 1 20 2 21 3 22 4 23 5 24 6 18 7 14 8 9 9 10 10 17 11
REMARK SMILES IDX 11 12 16 13 12 14 15 15 13 16 8 18 4 19 5 20 6 21 7 22 3 24
REMARK SMILES IDX 1 25 2 26 34 27 31 30 32 31 33 32 25 34 26 35 27 37 28 38
REMARK SMILES IDX 29 39 30 40
REMARK H PARENT 17 17 6 23 3 28 34 29 26 36
REMARK Flexibility Score:  190.900
ROOT
ATOM      1  N   UNL     1      -3.925  -0.036  -1.008  1.00  0.00    -0.290 NA
ATOM      2  C   UNL     1      -5.203   0.476  -1.547  1.00  0.00     0.113 C
ATOM      3  C   UNL     1      -5.051   1.344  -2.803  1.00  0.00     0.175 C
ATOM      4  O   UNL     1      -4.178   2.450  -2.556  1.00  0.00    -0.378 OA
ATOM      5  C   UNL     1      -2.884   1.991  -2.144  1.00  0.00     0.180 C
ATOM      6  C   UNL     1      -2.950   1.088  -0.884  1.00  0.00     0.096 C
ENDROOT
BRANCH   1   7
ATOM      7  C   UNL     1      -3.398  -1.143  -1.831  1.00  0.00     0.120 C
BRANCH   7   8
ATOM      8  C   UNL     1      -2.393  -1.997  -1.075  1.00  0.00    -0.032 A
ATOM      9  C   UNL     1       1.518  -3.250   0.889  1.00  0.00     0.161 A
ATOM     10  N   UNL     1       0.484  -4.040   1.141  1.00  0.00    -0.227 NA
ATOM     11  N   UNL     1       1.159  -2.293  -0.015  1.00  0.00    -0.337 N
ATOM     12  C   UNL     1      -0.581  -3.494   0.468  1.00  0.00     0.089 A
ATOM     13  C   UNL     1      -0.172  -2.418  -0.301  1.00  0.00     0.066 A
ATOM     14  C   UNL     1      -1.936  -3.848   0.469  1.00  0.00     0.031 A
ATOM     15  C   UNL     1      -1.023  -1.681  -1.123  1.00  0.00     0.033 A
ATOM     16  C   UNL     1      -2.834  -3.073  -0.284  1.00  0.00     0.007 A
ATOM     17  H   UNL     1       1.779  -1.591  -0.394  1.00  0.00     0.168 HD
BRANCH   9  18
ATOM     18  C   UNL     1       2.949  -3.425   1.546  1.00  0.00     0.151 A
ATOM     19  C   UNL     1       4.091  -2.556   1.655  1.00  0.00     0.092 A
ATOM     20  C   UNL     1       5.018  -3.315   2.348  1.00  0.00     0.132 A
ATOM     21  N   UNL     1       4.429  -4.506   2.623  1.00  0.00    -0.283 N
ATOM     22  N   UNL     1       3.177  -4.588   2.186  1.00  0.00    -0.170 NA
ATOM     23  H   UNL     1       4.812  -5.302   3.123  1.00  0.00     0.189 HD
BRANCH  19  24
ATOM     24  N   UNL     1       4.426  -1.241   1.359  1.00  0.00    -0.304 N
ATOM     25  O   UNL     1       2.908  -0.550  -0.236  1.00  0.00    -0.248 OA
ATOM     26  C   UNL     1       3.747  -0.310   0.621  1.00  0.00     0.319 C
ATOM     27  N   UNL     1       4.116   0.978   0.962  1.00  0.00    -0.332 N
ATOM     28  H   UNL     1       5.321  -0.939   1.716  1.00  0.00     0.172 HD
ATOM     29  H   UNL     1       4.745   1.110   1.742  1.00  0.00     0.165 HD
BRANCH  27  30
ATOM     30  C   UNL     1       3.502   2.165   0.411  1.00  0.00     0.044 C
ATOM     31  C   UNL     1       4.445   3.186  -0.202  1.00  0.00     0.031 C
ATOM     32  C   UNL     1       3.517   2.410  -1.083  1.00  0.00     0.031 C
ATOM     33  G   UNL     1       2.336   2.717   1.219  1.00  0.00     0.000 C
ENDBRANCH  27  30
ENDBRANCH  19  24
ENDBRANCH   9  18
ENDBRANCH   7   8
ENDBRANCH   1   7
BRANCH   6  34
ATOM     34  C   UNL     1      -3.233   1.935   0.391  1.00  0.00     0.104 C
BRANCH  34  35
ATOM     35  N   UNL     1      -2.027   2.660   0.825  1.00  0.00    -0.293 NA
ATOM     36  H   UNL     1      -2.294   3.486   1.359  1.00  0.00     0.125 HD
BRANCH  35  37
ATOM     37  C   UNL     1      -1.214   1.836   1.710  1.00  0.00     0.244 C
BRANCH  37  38
ATOM     38  O   UNL     1       0.048   2.460   1.909  1.00  0.00    -0.366 OA
BRANCH  38  39
ATOM     39  C   UNL     1       1.046   1.923   1.036  1.00  0.00     0.164 C
BRANCH  39  40
ATOM     40  C   UNL     1       2.336   2.717   1.219  1.00  0.00     0.057 C
ATOM     41  G   UNL     1       3.502   2.165   0.411  1.00  0.00     0.000 C
ENDBRANCH  39  40
ENDBRANCH  38  39
ENDBRANCH  37  38
ENDBRANCH  35  37
ENDBRANCH  34  35
ENDBRANCH   6  34
TORSDOF 0
