REMARK SMILES Cc1cnc2nc1-c1cccc(c1)COCC1=CCOCc3cc(ccc3OCCN3CCC[C@H]3COC1)N2
REMARK SMILES IDX 22 1 23 2 24 3 25 4 26 5 27 6 39 7 5 9 2 10 3 11 7 12 4 13
REMARK SMILES IDX 6 14 1 15 8 16 9 17 13 18 10 19 12 20 11 21 14 22 15 23
REMARK SMILES IDX 16 24 21 26 20 27 19 28 18 29 17 30 38 32 37 33 36 34 28 36
REMARK SMILES IDX 29 37 30 38 31 39 32 40 35 41 33 42 34 43
REMARK H PARENT 39 8
REMARK Flexibility Score:  100.800
ROOT
ATOM      1  C   UNL     1      -0.237   1.995  -0.148  1.00  0.00     0.022 A
ATOM      2  C   UNL     1       1.023   2.611  -0.190  1.00  0.00     0.036 A
ATOM      3  C   UNL     1       1.473   3.317  -1.316  1.00  0.00     0.042 A
ATOM      4  C   UNL     1       0.598   3.468  -2.397  1.00  0.00     0.030 A
ATOM      5  C   UNL     1      -0.656   2.849  -2.384  1.00  0.00     0.049 A
ATOM      6  C   UNL     1      -1.057   2.101  -1.276  1.00  0.00     0.125 A
ENDROOT
BRANCH   3   7
ATOM      7  N   UNL     1       2.814   3.701  -1.445  1.00  0.00    -0.324 N
ATOM      8  H   UNL     1       3.048   4.512  -1.992  1.00  0.00     0.170 HD
BRANCH   7   9
ATOM      9  C   UNL     1       3.940   2.928  -1.154  1.00  0.00     0.227 A
ATOM     10  C   UNL     1       6.134   1.331  -0.809  1.00  0.00    -0.006 A
ATOM     11  C   UNL     1       6.205   2.654  -1.210  1.00  0.00     0.120 A
ATOM     12  C   UNL     1       4.854   0.872  -0.560  1.00  0.00     0.079 A
ATOM     13  N   UNL     1       5.141   3.461  -1.403  1.00  0.00    -0.221 NA
ATOM     14  N   UNL     1       3.780   1.669  -0.733  1.00  0.00    -0.212 NA
ATOM     15  C   UNL     1       7.373   0.511  -0.669  1.00  0.00     0.048 C
BRANCH  12  16
ATOM     16  C   UNL     1       4.485  -0.497  -0.144  1.00  0.00     0.001 A
ATOM     17  C   UNL     1       5.073  -1.142   0.954  1.00  0.00     0.010 A
ATOM     18  C   UNL     1       3.451  -1.177  -0.824  1.00  0.00     0.016 A
ATOM     19  C   UNL     1       4.654  -2.417   1.348  1.00  0.00     0.001 A
ATOM     20  C   UNL     1       3.016  -2.455  -0.437  1.00  0.00    -0.022 A
ATOM     21  C   UNL     1       3.631  -3.068   0.658  1.00  0.00     0.006 A
BRANCH  20  22
ATOM     22  C   UNL     1       1.887  -3.138  -1.173  1.00  0.00     0.196 C
BRANCH  22  23
ATOM     23  O   UNL     1       0.724  -3.272  -0.356  1.00  0.00    -0.372 OA
BRANCH  23  24
ATOM     24  C   UNL     1      -0.084  -2.088  -0.381  1.00  0.00     0.194 C
ATOM     25  G   UNL     1      -1.125  -2.220   0.701  1.00  0.00     0.000 C
ENDBRANCH  23  24
ENDBRANCH  22  23
ENDBRANCH  20  22
ENDBRANCH  12  16
ENDBRANCH   7   9
ENDBRANCH   3   7
BRANCH   1  26
ATOM     26  C   UNL     1      -0.645   1.232   1.086  1.00  0.00     0.200 C
BRANCH  26  27
ATOM     27  O   UNL     1       0.379   0.303   1.440  1.00  0.00    -0.373 OA
BRANCH  27  28
ATOM     28  C   UNL     1      -0.033  -0.643   2.416  1.00  0.00     0.188 C
BRANCH  28  29
ATOM     29  C   UNL     1      -1.059  -1.619   1.909  1.00  0.00     0.005 C
ATOM     30  C   UNL     1      -1.125  -2.220   0.701  1.00  0.00    -0.021 C
ATOM     31  G   UNL     1      -0.084  -2.088  -0.381  1.00  0.00     0.000 C
BRANCH  30  32
ATOM     32  C   UNL     1      -2.302  -3.089   0.339  1.00  0.00     0.193 C
BRANCH  32  33
ATOM     33  O   UNL     1      -3.089  -2.410  -0.640  1.00  0.00    -0.375 OA
BRANCH  33  34
ATOM     34  C   UNL     1      -4.462  -2.230  -0.287  1.00  0.00     0.179 C
ATOM     35  G   UNL     1      -4.702  -1.168   0.811  1.00  0.00     0.000 C
ENDBRANCH  33  34
ENDBRANCH  32  33
ENDBRANCH  30  32
ENDBRANCH  28  29
ENDBRANCH  27  28
ENDBRANCH  26  27
ENDBRANCH   1  26
BRANCH   6  36
ATOM     36  O   UNL     1      -2.160   1.305  -1.406  1.00  0.00    -0.492 OA
BRANCH  36  37
ATOM     37  C   UNL     1      -3.371   1.935  -0.975  1.00  0.00     0.245 C
BRANCH  37  38
ATOM     38  C   UNL     1      -4.397   0.818  -0.681  1.00  0.00     0.126 C
BRANCH  38  39
ATOM     39  N   UNL     1      -4.176   0.207   0.647  1.00  0.00    -0.295 NA
ATOM     40  C   UNL     1      -4.849   0.972   1.709  1.00  0.00     0.085 C
ATOM     41  C   UNL     1      -4.702  -1.168   0.811  1.00  0.00     0.082 C
ATOM     42  C   UNL     1      -6.245   0.374   1.840  1.00  0.00     0.017 C
ATOM     43  C   UNL     1      -6.187  -0.958   1.102  1.00  0.00     0.023 C
ATOM     44  G   UNL     1      -4.462  -2.230  -0.287  1.00  0.00     0.000 C
ENDBRANCH  38  39
ENDBRANCH  37  38
ENDBRANCH  36  37
ENDBRANCH   6  36
TORSDOF 0
