REMARK SMILES Cc1cnc2nc1-c1cccc(c1)COCC=C1CNC[C@@H]3CCCN3CCOc3ccc(cc3COC1)N2
REMARK SMILES IDX 30 1 31 2 32 3 33 4 34 5 35 6 39 7 5 9 2 10 3 11 7 12 4 13
REMARK SMILES IDX 6 14 1 15 8 16 9 17 13 18 10 19 12 20 11 21 14 22 15 23
REMARK SMILES IDX 16 24 36 26 37 27 38 28 18 29 17 30 19 32 20 33 21 35 29 37
REMARK SMILES IDX 28 38 27 39 26 40 25 41 22 42 24 43 23 44
REMARK H PARENT 39 8 20 34
REMARK Flexibility Score:  100.800
ROOT
ATOM      1  C   UNL     1      -1.515  -2.814  -0.975  1.00  0.00     0.125 A
ATOM      2  C   UNL     1      -1.272  -3.964  -0.229  1.00  0.00     0.049 A
ATOM      3  C   UNL     1      -0.031  -4.139   0.390  1.00  0.00     0.030 A
ATOM      4  C   UNL     1       0.993  -3.188   0.258  1.00  0.00     0.042 A
ATOM      5  C   UNL     1       0.736  -2.062  -0.532  1.00  0.00     0.036 A
ATOM      6  C   UNL     1      -0.515  -1.849  -1.143  1.00  0.00     0.022 A
ENDROOT
BRANCH   4   7
ATOM      7  N   UNL     1       2.197  -3.403   0.936  1.00  0.00    -0.324 N
ATOM      8  H   UNL     1       2.292  -4.266   1.451  1.00  0.00     0.170 HD
BRANCH   7   9
ATOM      9  C   UNL     1       3.362  -2.658   1.097  1.00  0.00     0.227 A
ATOM     10  C   UNL     1       5.699  -1.306   1.527  1.00  0.00    -0.006 A
ATOM     11  C   UNL     1       5.434  -2.543   2.074  1.00  0.00     0.120 A
ATOM     12  C   UNL     1       4.691  -0.806   0.719  1.00  0.00     0.079 A
ATOM     13  N   UNL     1       4.293  -3.229   1.875  1.00  0.00    -0.221 NA
ATOM     14  N   UNL     1       3.528  -1.464   0.519  1.00  0.00    -0.212 NA
ATOM     15  C   UNL     1       6.994  -0.608   1.779  1.00  0.00     0.048 C
BRANCH  12  16
ATOM     16  C   UNL     1       4.798   0.465  -0.011  1.00  0.00     0.001 A
ATOM     17  C   UNL     1       5.669   0.593  -1.105  1.00  0.00     0.010 A
ATOM     18  C   UNL     1       4.018   1.576   0.355  1.00  0.00     0.016 A
ATOM     19  C   UNL     1       5.774   1.798  -1.800  1.00  0.00     0.001 A
ATOM     20  C   UNL     1       4.104   2.791  -0.346  1.00  0.00    -0.022 A
ATOM     21  C   UNL     1       5.000   2.892  -1.418  1.00  0.00     0.006 A
BRANCH  20  22
ATOM     22  C   UNL     1       3.287   3.994   0.067  1.00  0.00     0.196 C
BRANCH  22  23
ATOM     23  O   UNL     1       1.957   3.683   0.479  1.00  0.00    -0.373 OA
BRANCH  23  24
ATOM     24  C   UNL     1       1.125   3.264  -0.603  1.00  0.00     0.188 C
ATOM     25  G   UNL     1      -0.289   3.335  -0.113  1.00  0.00     0.000 C
ENDBRANCH  23  24
ENDBRANCH  22  23
ENDBRANCH  20  22
ENDBRANCH  12  16
ENDBRANCH   7   9
ENDBRANCH   4   7
BRANCH   6  26
ATOM     26  C   UNL     1      -0.745  -0.605  -1.968  1.00  0.00     0.200 C
BRANCH  26  27
ATOM     27  O   UNL     1      -0.275   0.611  -1.378  1.00  0.00    -0.372 OA
BRANCH  27  28
ATOM     28  C   UNL     1      -0.729   0.855  -0.048  1.00  0.00     0.193 C
BRANCH  28  29
ATOM     29  C   UNL     1      -1.133   2.303   0.111  1.00  0.00    -0.033 C
ATOM     30  C   UNL     1      -0.289   3.335  -0.113  1.00  0.00     0.004 C
ATOM     31  G   UNL     1       1.125   3.264  -0.603  1.00  0.00     0.000 C
BRANCH  29  32
ATOM     32  C   UNL     1      -2.499   2.557   0.717  1.00  0.00     0.114 C
BRANCH  32  33
ATOM     33  N   UNL     1      -3.590   2.690  -0.249  1.00  0.00    -0.311 NA
ATOM     34  H   UNL     1      -3.259   3.310  -0.990  1.00  0.00     0.123 HD
BRANCH  33  35
ATOM     35  C   UNL     1      -4.056   1.441  -0.860  1.00  0.00     0.100 C
ATOM     36  G   UNL     1      -5.209   0.708  -0.124  1.00  0.00     0.000 C
ENDBRANCH  33  35
ENDBRANCH  32  33
ENDBRANCH  29  32
ENDBRANCH  28  29
ENDBRANCH  27  28
ENDBRANCH  26  27
ENDBRANCH   6  26
BRANCH   1  37
ATOM     37  O   UNL     1      -2.736  -2.667  -1.581  1.00  0.00    -0.492 OA
BRANCH  37  38
ATOM     38  C   UNL     1      -3.695  -2.118  -0.657  1.00  0.00     0.245 C
BRANCH  38  39
ATOM     39  C   UNL     1      -4.785  -1.392  -1.465  1.00  0.00     0.126 C
BRANCH  39  40
ATOM     40  N   UNL     1      -5.740  -0.518  -0.768  1.00  0.00    -0.296 NA
ATOM     41  C   UNL     1      -6.523  -1.200   0.264  1.00  0.00     0.085 C
ATOM     42  C   UNL     1      -5.209   0.708  -0.124  1.00  0.00     0.070 C
ATOM     43  C   UNL     1      -5.868  -0.871   1.596  1.00  0.00     0.017 C
ATOM     44  C   UNL     1      -4.934   0.300   1.321  1.00  0.00     0.022 C
ATOM     45  G   UNL     1      -4.056   1.441  -0.860  1.00  0.00     0.000 C
ENDBRANCH  39  40
ENDBRANCH  38  39
ENDBRANCH  37  38
ENDBRANCH   1  37
TORSDOF 0
