REMARK SMILES N#CC1CN(C(=O)[C@@H]2NC(=O)c3c[nH]c4ncc(nc34)[C@]3(CCOCC[C@]24CC4)CC3)C1
REMARK SMILES IDX 12 1 13 2 14 3 15 4 16 5 17 6 18 7 19 8 20 9 10 11 9 12
REMARK SMILES IDX 11 13 8 15 6 16 1 17 2 18 3 19 4 20 32 21 5 22 7 23 27 24
REMARK SMILES IDX 28 25 29 26 26 27 21 29 30 30 31 31 22 32 23 33 24 34 25 35
REMARK H PARENT 14 10 9 14
REMARK Flexibility Score:   64.900
ROOT
ATOM      1  C   UNL     1       0.472   1.461   2.664  1.00  0.00     0.085 A
ATOM      2  C   UNL     1       1.024   2.179   3.718  1.00  0.00     0.100 A
ATOM      3  N   UNL     1       2.341   2.449   3.423  1.00  0.00    -0.344 N
ATOM      4  C   UNL     1       2.651   1.927   2.199  1.00  0.00     0.156 A
ATOM      5  N   UNL     1       3.845   1.980   1.583  1.00  0.00    -0.235 NA
ATOM      6  C   UNL     1       3.787   1.359   0.368  1.00  0.00     0.138 A
ATOM      7  C   UNL     1       2.655   0.748  -0.199  1.00  0.00     0.066 A
ATOM      8  N   UNL     1       1.480   0.730   0.483  1.00  0.00    -0.246 NA
ATOM      9  C   UNL     1       1.506   1.327   1.701  1.00  0.00     0.120 A
ATOM     10  H   UNL     1       3.001   2.938   4.013  1.00  0.00     0.168 HD
ENDROOT
BRANCH   1  11
ATOM     11  C   UNL     1      -0.893   0.957   2.591  1.00  0.00     0.255 C
ATOM     12  N   UNL     1      -1.148   0.207   1.468  1.00  0.00    -0.340 N
ATOM     13  O   UNL     1      -1.725   1.184   3.461  1.00  0.00    -0.269 OA
ATOM     14  H   UNL     1      -0.396   0.090   0.797  1.00  0.00     0.164 HD
BRANCH  12  15
ATOM     15  C   UNL     1      -2.412  -0.449   1.201  1.00  0.00     0.178 C
BRANCH  15  16
ATOM     16  C   UNL     1      -3.153  -0.038  -0.106  1.00  0.00     0.245 C
ATOM     17  N   UNL     1      -0.628   3.075  -4.018  1.00  0.00    -0.198 NA
ATOM     18  C   UNL     1      -1.353   2.888  -3.134  1.00  0.00     0.069 C
ATOM     19  C   UNL     1      -2.224   2.647  -2.008  1.00  0.00     0.131 C
ATOM     20  C   UNL     1      -1.563   1.905  -0.834  1.00  0.00     0.140 C
ATOM     21  C   UNL     1      -3.182   1.456  -2.151  1.00  0.00     0.140 C
ATOM     22  N   UNL     1      -2.683   0.994  -0.866  1.00  0.00    -0.338 N
ATOM     23  O   UNL     1      -4.178  -0.631  -0.460  1.00  0.00    -0.272 OA
ENDBRANCH  15  16
BRANCH  15  24
ATOM     24  C   UNL     1      -2.173  -1.973   1.270  1.00  0.00     0.002 C
ATOM     25  C   UNL     1      -2.103  -2.615   2.650  1.00  0.00     0.010 C
ATOM     26  C   UNL     1      -3.317  -2.823   1.801  1.00  0.00     0.010 C
BRANCH  24  27
ATOM     27  C   UNL     1      -1.330  -2.573   0.144  1.00  0.00     0.038 C
ATOM     28  G   UNL     1       0.147  -2.745   0.500  1.00  0.00     0.000 C
ENDBRANCH  24  27
ENDBRANCH  15  24
ENDBRANCH  12  15
ENDBRANCH   1  11
BRANCH   7  29
ATOM     29  C   UNL     1       2.641   0.080  -1.586  1.00  0.00     0.016 C
ATOM     30  C   UNL     1       2.743   1.018  -2.782  1.00  0.00     0.014 C
ATOM     31  C   UNL     1       3.857   0.056  -2.495  1.00  0.00     0.014 C
BRANCH  29  32
ATOM     32  C   UNL     1       1.650  -1.074  -1.726  1.00  0.00     0.042 C
BRANCH  32  33
ATOM     33  C   UNL     1       2.033  -2.305  -0.903  1.00  0.00     0.161 C
BRANCH  33  34
ATOM     34  O   UNL     1       0.880  -3.119  -0.671  1.00  0.00    -0.381 OA
BRANCH  34  35
ATOM     35  C   UNL     1       0.147  -2.745   0.500  1.00  0.00     0.161 C
ATOM     36  G   UNL     1      -1.330  -2.573   0.144  1.00  0.00     0.000 C
ENDBRANCH  34  35
ENDBRANCH  33  34
ENDBRANCH  32  33
ENDBRANCH  29  32
ENDBRANCH   7  29
TORSDOF 1
