REMARK SMILES N#CC1CN(C(=O)[C@@H]2NC(=O)c3c[nH]c4ncc(nc34)[C@]3(CCCCC[C@]24CC4)CC3)C1
REMARK SMILES IDX 9 1 10 2 11 3 8 5 6 6 1 7 2 8 3 9 4 10 32 11 5 12 7 13 27 14
REMARK SMILES IDX 29 15 28 16 26 17 25 18 24 19 12 21 13 22 20 23 14 24 19 25
REMARK SMILES IDX 15 26 18 27 16 28 17 29 21 31 30 32 31 33 22 34 23 35
REMARK H PARENT 9 4 14 30
REMARK Flexibility Score:   32.900
ROOT
ATOM      1  N   UNL     1       0.748   0.762  -0.116  1.00  0.00    -0.340 N
ATOM      2  C   UNL     1       0.669   2.038  -0.621  1.00  0.00     0.255 C
ATOM      3  O   UNL     1       1.533   2.517  -1.350  1.00  0.00    -0.269 OA
ATOM      4  H   UNL     1       0.024   0.441   0.513  1.00  0.00     0.164 HD
ENDROOT
BRANCH   1   5
ATOM      5  C   UNL     1       1.901  -0.082  -0.379  1.00  0.00     0.178 C
BRANCH   5   6
ATOM      6  C   UNL     1       3.121   0.542   0.356  1.00  0.00     0.245 C
ATOM      7  N   UNL     1       7.563   2.029  -2.840  1.00  0.00    -0.198 NA
ATOM      8  C   UNL     1       6.908   1.371  -2.144  1.00  0.00     0.069 C
ATOM      9  C   UNL     1       6.106   0.538  -1.284  1.00  0.00     0.131 C
ATOM     10  C   UNL     1       5.551   1.219  -0.021  1.00  0.00     0.140 C
ATOM     11  C   UNL     1       4.646   0.328  -1.732  1.00  0.00     0.140 C
ATOM     12  N   UNL     1       4.283   0.608  -0.362  1.00  0.00    -0.338 N
ATOM     13  O   UNL     1       3.070   0.943   1.522  1.00  0.00    -0.272 OA
ENDBRANCH   5   6
BRANCH   5  14
ATOM     14  C   UNL     1       1.576  -1.537   0.034  1.00  0.00    -0.000 C
ATOM     15  C   UNL     1       1.562  -1.899   1.519  1.00  0.00     0.010 C
ATOM     16  C   UNL     1       2.671  -2.403   0.653  1.00  0.00     0.010 C
BRANCH  14  17
ATOM     17  C   UNL     1       0.666  -2.270  -0.962  1.00  0.00     0.010 C
BRANCH  17  18
ATOM     18  C   UNL     1      -0.595  -2.921  -0.378  1.00  0.00     0.001 C
BRANCH  18  19
ATOM     19  C   UNL     1      -1.583  -1.882   0.149  1.00  0.00     0.000 C
ATOM     20  G   UNL     1      -2.869  -2.493   0.699  1.00  0.00     0.000 C
ENDBRANCH  18  19
ENDBRANCH  17  18
ENDBRANCH  14  17
ENDBRANCH   5  14
ENDBRANCH   1   5
BRANCH   2  21
ATOM     21  C   UNL     1      -0.478   2.800  -0.158  1.00  0.00     0.085 A
ATOM     22  C   UNL     1      -0.496   4.177   0.030  1.00  0.00     0.100 A
ATOM     23  C   UNL     1      -1.776   2.337   0.187  1.00  0.00     0.120 A
ATOM     24  N   UNL     1      -1.723   4.533   0.535  1.00  0.00    -0.344 N
ATOM     25  N   UNL     1      -2.315   1.093   0.124  1.00  0.00    -0.246 NA
ATOM     26  C   UNL     1      -2.512   3.424   0.640  1.00  0.00     0.156 A
ATOM     27  C   UNL     1      -3.611   1.002   0.514  1.00  0.00     0.066 A
ATOM     28  N   UNL     1      -3.779   3.392   1.093  1.00  0.00    -0.235 NA
ATOM     29  C   UNL     1      -4.284   2.130   1.009  1.00  0.00     0.138 A
ATOM     30  H   UNL     1      -2.021   5.464   0.789  1.00  0.00     0.168 HD
BRANCH  27  31
ATOM     31  C   UNL     1      -4.306  -0.361   0.359  1.00  0.00     0.014 C
ATOM     32  C   UNL     1      -5.779  -0.402  -0.050  1.00  0.00     0.014 C
ATOM     33  C   UNL     1      -4.734  -0.754  -1.055  1.00  0.00     0.014 C
BRANCH  31  34
ATOM     34  C   UNL     1      -3.819  -1.451   1.313  1.00  0.00     0.013 C
BRANCH  34  35
ATOM     35  C   UNL     1      -2.869  -2.493   0.699  1.00  0.00     0.001 C
ATOM     36  G   UNL     1      -1.583  -1.882   0.149  1.00  0.00     0.000 C
ENDBRANCH  34  35
ENDBRANCH  31  34
ENDBRANCH  27  31
ENDBRANCH   2  21
TORSDOF 1
