REMARK SMILES NC(=O)c1cnc2c3c1[nH]c1cc(ccc13)-c1ccc(nn1)N1CCS(=O)(=O)C[C@H]1CCC[C@H]1C[C@H]1[C@H](C(F)(F)F)N2
REMARK SMILES IDX 4 1 5 2 6 3 7 4 8 5 9 6 10 7 11 8 12 9 13 10 14 11 15 12
REMARK SMILES IDX 16 13 2 15 1 16 3 17 42 20 37 22 36 23 35 24 34 25 33 26
REMARK SMILES IDX 38 28 39 29 40 30 41 31 17 32 18 33 22 34 19 35 21 36 20 37
REMARK SMILES IDX 23 38 24 39 30 40 25 41 29 42 26 43 27 44 28 45 31 46 32 47
REMARK H PARENT 10 14 1 18 1 19 42 21
REMARK Flexibility Score:   48.900
ROOT
ATOM      1  C   UNL     1       5.691   0.377   0.745  1.00  0.00     0.082 A
ATOM      2  C   UNL     1       6.001  -0.752  -0.006  1.00  0.00     0.129 A
ATOM      3  N   UNL     1       5.203  -1.323  -0.950  1.00  0.00    -0.238 NA
ATOM      4  C   UNL     1       4.003  -0.764  -1.222  1.00  0.00     0.136 A
ATOM      5  C   UNL     1       3.659   0.456  -0.605  1.00  0.00     0.051 A
ATOM      6  C   UNL     1       4.464   0.961   0.413  1.00  0.00     0.065 A
ATOM      7  N   UNL     1       3.782   2.024   0.973  1.00  0.00    -0.354 N
ATOM      8  C   UNL     1       2.568   2.206   0.352  1.00  0.00     0.047 A
ATOM      9  C   UNL     1       1.460   2.999   0.693  1.00  0.00     0.037 A
ATOM     10  C   UNL     1       0.317   2.910  -0.126  1.00  0.00     0.004 A
ATOM     11  C   UNL     1       0.393   2.205  -1.343  1.00  0.00     0.011 A
ATOM     12  C   UNL     1       1.492   1.411  -1.654  1.00  0.00     0.012 A
ATOM     13  C   UNL     1       2.553   1.343  -0.741  1.00  0.00     0.011 A
ATOM     14  H   UNL     1       4.113   2.529   1.788  1.00  0.00     0.167 HD
ENDROOT
BRANCH   1  15
ATOM     15  C   UNL     1       6.529   0.946   1.821  1.00  0.00     0.252 C
ATOM     16  N   UNL     1       7.759   0.403   2.060  1.00  0.00    -0.365 N
ATOM     17  O   UNL     1       6.132   1.896   2.488  1.00  0.00    -0.269 OA
ATOM     18  H   UNL     1       8.303   0.821   2.806  1.00  0.00     0.159 HD
ATOM     19  H   UNL     1       8.178  -0.362   1.555  1.00  0.00     0.159 HD
ENDBRANCH   1  15
BRANCH   4  20
ATOM     20  N   UNL     1       3.114  -1.472  -2.021  1.00  0.00    -0.358 N
ATOM     21  H   UNL     1       3.636  -1.858  -2.809  1.00  0.00     0.162 HD
BRANCH  20  22
ATOM     22  C   UNL     1       2.292  -2.548  -1.369  1.00  0.00     0.189 C
BRANCH  22  23
ATOM     23  C   UNL     1       1.911  -2.252   0.073  1.00  0.00     0.024 C
ATOM     24  C   UNL     1       0.917  -3.113   0.823  1.00  0.00     0.010 C
ATOM     25  C   UNL     1       0.585  -1.669   0.560  1.00  0.00    -0.005 C
BRANCH  25  26
ATOM     26  C   UNL     1      -0.652  -1.379  -0.249  1.00  0.00     0.004 C
ATOM     27  G   UNL     1      -1.831  -1.068   0.697  1.00  0.00     0.000 C
ENDBRANCH  25  26
ENDBRANCH  22  23
BRANCH  22  28
ATOM     28  C   UNL     1       2.987  -3.941  -1.479  1.00  0.00     0.408 C
ATOM     29  F   UNL     1       2.102  -4.949  -1.282  1.00  0.00    -0.169 F
ATOM     30  F   UNL     1       3.504  -4.115  -2.723  1.00  0.00    -0.169 F
ATOM     31  F   UNL     1       3.993  -4.105  -0.593  1.00  0.00    -0.169 F
ENDBRANCH  22  28
ENDBRANCH  20  22
ENDBRANCH   4  20
BRANCH  10  32
ATOM     32  C   UNL     1      -1.028   3.233   0.383  1.00  0.00     0.093 A
ATOM     33  C   UNL     1      -2.041   3.696  -0.442  1.00  0.00     0.035 A
ATOM     34  N   UNL     1      -1.330   2.568   1.517  1.00  0.00    -0.148 NA
ATOM     35  C   UNL     1      -3.325   3.187  -0.252  1.00  0.00     0.051 A
ATOM     36  N   UNL     1      -2.588   2.070   1.688  1.00  0.00    -0.132 NA
ATOM     37  C   UNL     1      -3.538   2.246   0.749  1.00  0.00     0.151 A
BRANCH  37  38
ATOM     38  N   UNL     1      -4.566   1.315   0.663  1.00  0.00    -0.350 N
ATOM     39  C   UNL     1      -5.895   1.666   0.182  1.00  0.00     0.134 C
ATOM     40  C   UNL     1      -4.198  -0.093   0.973  1.00  0.00     0.098 C
ATOM     41  C   UNL     1      -6.256   0.785  -0.987  1.00  0.00     0.158 C
ATOM     42  C   UNL     1      -5.428  -0.990   1.041  1.00  0.00     0.162 C
ATOM     43  S   UNL     1      -6.440  -0.886  -0.416  1.00  0.00     0.154 S
ATOM     44  O   UNL     1      -7.820  -1.045   0.007  1.00  0.00    -0.229 OA
ATOM     45  O   UNL     1      -5.886  -1.764  -1.430  1.00  0.00    -0.229 OA
BRANCH  40  46
ATOM     46  C   UNL     1      -3.122  -0.641  -0.025  1.00  0.00     0.026 C
BRANCH  46  47
ATOM     47  C   UNL     1      -1.831  -1.068   0.697  1.00  0.00     0.002 C
ATOM     48  G   UNL     1      -0.652  -1.379  -0.249  1.00  0.00     0.000 C
ENDBRANCH  46  47
ENDBRANCH  40  46
ENDBRANCH  37  38
ENDBRANCH  10  32
TORSDOF 2
