REMARK SMILES N#C[C@H]1CCN(C(=O)[C@@H]2NC(=O)c3c[nH]c4ncc(nc34)[C@@H]3C[C@H]3COCC23CC3)C1
REMARK SMILES IDX 13 1 14 2 15 3 16 4 17 5 18 6 19 7 20 8 21 9 11 11 10 12
REMARK SMILES IDX 12 13 9 15 7 16 8 17 6 18 1 19 2 20 3 21 4 22 31 23 5 24
REMARK SMILES IDX 28 25 29 26 30 27 22 29 23 30 24 31 25 32 26 33 27 34
REMARK H PARENT 15 10 10 14
REMARK Flexibility Score:  106.900
ROOT
ATOM      1  C   UNL     1      -1.410   2.785  -1.093  1.00  0.00     0.085 A
ATOM      2  C   UNL     1      -1.777   4.116  -1.232  1.00  0.00     0.100 A
ATOM      3  N   UNL     1      -3.113   4.241  -0.890  1.00  0.00    -0.344 N
ATOM      4  C   UNL     1      -3.616   3.020  -0.526  1.00  0.00     0.156 A
ATOM      5  N   UNL     1      -4.858   2.719  -0.089  1.00  0.00    -0.235 NA
ATOM      6  C   UNL     1      -4.955   1.383   0.215  1.00  0.00     0.137 A
ATOM      7  C   UNL     1      -3.933   0.437   0.075  1.00  0.00     0.063 A
ATOM      8  N   UNL     1      -2.735   0.805  -0.408  1.00  0.00    -0.247 NA
ATOM      9  C   UNL     1      -2.584   2.116  -0.677  1.00  0.00     0.120 A
ATOM     10  H   UNL     1      -3.648   5.098  -0.879  1.00  0.00     0.168 HD
ENDROOT
BRANCH   1  11
ATOM     11  C   UNL     1      -0.102   2.157  -1.286  1.00  0.00     0.255 C
ATOM     12  N   UNL     1      -0.109   0.817  -0.982  1.00  0.00    -0.339 N
ATOM     13  O   UNL     1       0.894   2.769  -1.656  1.00  0.00    -0.269 OA
ATOM     14  H   UNL     1      -0.951   0.464  -0.532  1.00  0.00     0.164 HD
BRANCH  12  15
ATOM     15  C   UNL     1       1.042  -0.051  -0.882  1.00  0.00     0.180 C
BRANCH  15  16
ATOM     16  C   UNL     1       1.495  -0.007   0.603  1.00  0.00     0.245 C
ATOM     17  O   UNL     1       0.697  -0.148   1.535  1.00  0.00    -0.272 OA
BRANCH  16  18
ATOM     18  N   UNL     1       2.833   0.224   0.864  1.00  0.00    -0.340 N
ATOM     19  N   UNL     1       5.955  -2.127   1.815  1.00  0.00    -0.198 NA
ATOM     20  C   UNL     1       5.462  -1.084   1.939  1.00  0.00     0.067 C
ATOM     21  C   UNL     1       4.861   0.251   2.084  1.00  0.00     0.114 C
ATOM     22  C   UNL     1       5.028   1.077   0.806  1.00  0.00     0.042 C
ATOM     23  C   UNL     1       3.345   0.163   2.224  1.00  0.00     0.138 C
ATOM     24  C   UNL     1       3.865   0.631  -0.075  1.00  0.00     0.121 C
ENDBRANCH  16  18
ENDBRANCH  15  16
BRANCH  15  25
ATOM     25  C   UNL     1       0.706  -1.474  -1.377  1.00  0.00     0.023 C
ATOM     26  C   UNL     1       1.287  -1.868  -2.730  1.00  0.00     0.013 C
ATOM     27  C   UNL     1       1.849  -2.473  -1.481  1.00  0.00     0.013 C
ATOM     28  G   UNL     1      -0.673  -2.052  -1.052  1.00  0.00     0.000 C
ENDBRANCH  15  25
ENDBRANCH  12  15
ENDBRANCH   1  11
BRANCH   7  29
ATOM     29  C   UNL     1      -4.027  -1.029   0.415  1.00  0.00     0.045 C
ATOM     30  C   UNL     1      -4.213  -1.594   1.796  1.00  0.00     0.017 C
ATOM     31  C   UNL     1      -2.825  -1.559   1.210  1.00  0.00     0.025 C
BRANCH  31  32
ATOM     32  C   UNL     1      -2.079  -2.767   0.744  1.00  0.00     0.164 C
BRANCH  32  33
ATOM     33  O   UNL     1      -0.758  -2.397   0.326  1.00  0.00    -0.380 OA
BRANCH  33  34
ATOM     34  C   UNL     1      -0.673  -2.052  -1.052  1.00  0.00     0.169 C
ATOM     35  G   UNL     1       0.706  -1.474  -1.377  1.00  0.00     0.000 C
ENDBRANCH  33  34
ENDBRANCH  32  33
ENDBRANCH  31  32
ENDBRANCH   7  29
TORSDOF 2
