REMARK SMILES N#C[C@H]1CCN(C(=O)[C@@H]2NC(=O)c3c[nH]c4ncc(nc34)C3(CC3)CSC[C@H]3C[C@@H]32)C1
REMARK SMILES IDX 13 1 14 2 15 3 16 4 17 5 18 6 19 7 20 8 21 9 11 11 10 12
REMARK SMILES IDX 12 13 9 15 7 16 8 17 6 18 1 19 2 20 3 21 4 22 31 23 5 24
REMARK SMILES IDX 30 25 29 26 28 27 22 29 23 30 24 31 25 32 26 33 27 34
REMARK H PARENT 15 10 10 14
REMARK Flexibility Score:  106.900
ROOT
ATOM      1  C   UNL     1      -0.574   2.945   0.597  1.00  0.00     0.085 A
ATOM      2  C   UNL     1      -0.513   4.260   1.038  1.00  0.00     0.100 A
ATOM      3  N   UNL     1      -1.668   4.541   1.731  1.00  0.00    -0.344 N
ATOM      4  C   UNL     1      -2.483   3.444   1.728  1.00  0.00     0.156 A
ATOM      5  N   UNL     1      -3.694   3.338   2.306  1.00  0.00    -0.235 NA
ATOM      6  C   UNL     1      -4.215   2.093   2.092  1.00  0.00     0.138 A
ATOM      7  C   UNL     1      -3.619   1.045   1.364  1.00  0.00     0.067 A
ATOM      8  N   UNL     1      -2.398   1.233   0.809  1.00  0.00    -0.246 NA
ATOM      9  C   UNL     1      -1.836   2.449   1.016  1.00  0.00     0.120 A
ATOM     10  H   UNL     1      -1.899   5.415   2.182  1.00  0.00     0.168 HD
ENDROOT
BRANCH   1  11
ATOM     11  C   UNL     1       0.448   2.230  -0.152  1.00  0.00     0.255 C
ATOM     12  N   UNL     1       0.252   0.874  -0.193  1.00  0.00    -0.340 N
ATOM     13  O   UNL     1       1.396   2.789  -0.696  1.00  0.00    -0.269 OA
ATOM     14  H   UNL     1      -0.513   0.477   0.349  1.00  0.00     0.164 HD
BRANCH  12  15
ATOM     15  C   UNL     1       1.129  -0.031  -0.901  1.00  0.00     0.175 C
BRANCH  15  16
ATOM     16  C   UNL     1       2.417  -0.243  -0.060  1.00  0.00     0.245 C
ATOM     17  O   UNL     1       2.377  -0.430   1.161  1.00  0.00    -0.272 OA
BRANCH  16  18
ATOM     18  N   UNL     1       3.625  -0.265  -0.730  1.00  0.00    -0.340 N
ATOM     19  N   UNL     1       5.955  -3.292  -1.922  1.00  0.00    -0.198 NA
ATOM     20  C   UNL     1       5.929  -2.189  -1.562  1.00  0.00     0.067 C
ATOM     21  C   UNL     1       5.898  -0.783  -1.130  1.00  0.00     0.114 C
ATOM     22  C   UNL     1       5.384   0.128  -2.248  1.00  0.00     0.042 C
ATOM     23  C   UNL     1       4.863  -0.570  -0.030  1.00  0.00     0.138 C
ATOM     24  C   UNL     1       3.865   0.034  -2.131  1.00  0.00     0.121 C
ENDBRANCH  16  18
ENDBRANCH  15  16
BRANCH  15  25
ATOM     25  C   UNL     1       0.330  -1.286  -1.183  1.00  0.00     0.025 C
ATOM     26  C   UNL     1       0.946  -2.659  -1.304  1.00  0.00     0.011 C
ATOM     27  C   UNL     1       0.078  -2.331  -0.109  1.00  0.00     0.005 C
ATOM     28  G   UNL     1      -1.259  -2.985   0.049  1.00  0.00     0.000 C
ENDBRANCH  15  25
ENDBRANCH  12  15
ENDBRANCH   1  11
BRANCH   7  29
ATOM     29  C   UNL     1      -4.295  -0.326   1.125  1.00  0.00     0.023 C
ATOM     30  C   UNL     1      -5.802  -0.347   0.881  1.00  0.00     0.015 C
ATOM     31  C   UNL     1      -5.253  -0.897   2.163  1.00  0.00     0.015 C
BRANCH  29  32
ATOM     32  C   UNL     1      -3.470  -1.322   0.306  1.00  0.00     0.083 C
BRANCH  32  33
ATOM     33  S   UNL     1      -2.199  -2.115   1.338  1.00  0.00    -0.161 SA
BRANCH  33  34
ATOM     34  C   UNL     1      -1.259  -2.985   0.049  1.00  0.00     0.073 C
ATOM     35  G   UNL     1       0.078  -2.331  -0.109  1.00  0.00     0.000 C
ENDBRANCH  33  34
ENDBRANCH  32  33
ENDBRANCH  29  32
ENDBRANCH   7  29
TORSDOF 2
