REMARK SMILES N#C[C@@H]1CCN(C(=O)[C@@H]2NC(=O)c3c[nH]c4ncc(nc34)[C@@H]3C[C@@H]3CNCC23CC3)C1
REMARK SMILES IDX 13 1 14 2 15 3 16 4 17 5 18 6 19 7 20 8 21 9 11 11 10 12
REMARK SMILES IDX 12 13 9 15 7 16 8 17 6 18 1 19 2 20 3 21 4 22 31 23 5 24
REMARK SMILES IDX 28 25 29 26 30 27 22 29 23 30 24 31 25 32 26 33 27 35
REMARK H PARENT 15 10 10 14 26 34
REMARK Flexibility Score:  106.900
ROOT
ATOM      1  C   UNL     1      -0.994   2.753   0.071  1.00  0.00     0.085 A
ATOM      2  C   UNL     1      -1.148   4.001   0.658  1.00  0.00     0.100 A
ATOM      3  N   UNL     1      -2.412   4.080   1.198  1.00  0.00    -0.344 N
ATOM      4  C   UNL     1      -3.081   2.907   0.982  1.00  0.00     0.156 A
ATOM      5  N   UNL     1      -4.321   2.597   1.407  1.00  0.00    -0.235 NA
ATOM      6  C   UNL     1      -4.660   1.332   1.019  1.00  0.00     0.137 A
ATOM      7  C   UNL     1      -3.863   0.448   0.271  1.00  0.00     0.063 A
ATOM      8  N   UNL     1      -2.635   0.837  -0.144  1.00  0.00    -0.247 NA
ATOM      9  C   UNL     1      -2.244   2.081   0.251  1.00  0.00     0.120 A
ATOM     10  H   UNL     1      -2.794   4.859   1.715  1.00  0.00     0.168 HD
ENDROOT
BRANCH   1  11
ATOM     11  C   UNL     1       0.235   2.208  -0.510  1.00  0.00     0.255 C
ATOM     12  N   UNL     1       0.061   0.931  -0.963  1.00  0.00    -0.340 N
ATOM     13  O   UNL     1       1.309   2.796  -0.506  1.00  0.00    -0.269 OA
ATOM     14  H   UNL     1      -0.904   0.657  -1.108  1.00  0.00     0.164 HD
BRANCH  12  15
ATOM     15  C   UNL     1       1.090  -0.098  -1.064  1.00  0.00     0.179 C
BRANCH  15  16
ATOM     16  C   UNL     1       1.920  -0.143   0.259  1.00  0.00     0.245 C
ATOM     17  O   UNL     1       1.406  -0.459   1.337  1.00  0.00    -0.272 OA
BRANCH  16  18
ATOM     18  N   UNL     1       3.256   0.200   0.193  1.00  0.00    -0.340 N
ATOM     19  N   UNL     1       7.097   1.495   2.622  1.00  0.00    -0.198 NA
ATOM     20  C   UNL     1       6.387   1.009   1.844  1.00  0.00     0.067 C
ATOM     21  C   UNL     1       5.505   0.386   0.858  1.00  0.00     0.114 C
ATOM     22  C   UNL     1       5.280   1.260  -0.377  1.00  0.00     0.042 C
ATOM     23  C   UNL     1       4.089   0.194   1.384  1.00  0.00     0.138 C
ATOM     24  C   UNL     1       3.985   0.707  -0.958  1.00  0.00     0.121 C
ENDBRANCH  16  18
ENDBRANCH  15  16
BRANCH  15  25
ATOM     25  C   UNL     1       0.383  -1.477  -1.256  1.00  0.00     0.012 C
ATOM     26  C   UNL     1       0.443  -2.112  -2.637  1.00  0.00     0.012 C
ATOM     27  C   UNL     1       1.247  -2.703  -1.519  1.00  0.00     0.012 C
ATOM     28  G   UNL     1      -0.937  -1.589  -0.507  1.00  0.00     0.000 C
ENDBRANCH  15  25
ENDBRANCH  12  15
ENDBRANCH   1  11
BRANCH   7  29
ATOM     29  C   UNL     1      -4.412  -0.881  -0.224  1.00  0.00     0.044 C
ATOM     30  C   UNL     1      -5.056  -1.853   0.736  1.00  0.00     0.016 C
ATOM     31  C   UNL     1      -3.807  -2.270   0.001  1.00  0.00     0.013 C
BRANCH  31  32
ATOM     32  C   UNL     1      -2.602  -2.642   0.814  1.00  0.00     0.085 C
BRANCH  32  33
ATOM     33  N   UNL     1      -1.409  -2.881  -0.027  1.00  0.00    -0.316 NA
ATOM     34  H   UNL     1      -0.681  -3.255   0.584  1.00  0.00     0.122 HD
BRANCH  33  35
ATOM     35  C   UNL     1      -0.937  -1.589  -0.507  1.00  0.00     0.090 C
ATOM     36  G   UNL     1       0.383  -1.477  -1.256  1.00  0.00     0.000 C
ENDBRANCH  33  35
ENDBRANCH  32  33
ENDBRANCH  31  32
ENDBRANCH   7  29
TORSDOF 2
