REMARK SMILES Cc1cnc2nc1-c1cccc(c1)COCC1=CCOCc3cc(ccc3OCCN3CCC[C@@H]3CNC1)N2
REMARK SMILES IDX 22 1 23 2 24 3 25 4 26 5 27 6 39 7 5 9 2 10 3 11 7 12 4 13
REMARK SMILES IDX 6 14 1 15 8 16 9 17 13 18 10 19 12 20 11 21 14 22 15 23
REMARK SMILES IDX 16 24 21 26 20 27 19 28 18 29 17 30 38 32 37 33 36 35 28 37
REMARK SMILES IDX 29 38 30 39 31 40 32 41 35 42 33 43 34 44
REMARK H PARENT 39 8 37 34
REMARK Flexibility Score:  100.800
ROOT
ATOM      1  C   UNL     1      -0.585  -2.386  -0.331  1.00  0.00     0.022 A
ATOM      2  C   UNL     1       0.767  -2.354  -0.780  1.00  0.00     0.036 A
ATOM      3  C   UNL     1       1.221  -3.027  -1.921  1.00  0.00     0.042 A
ATOM      4  C   UNL     1       0.277  -3.750  -2.648  1.00  0.00     0.030 A
ATOM      5  C   UNL     1      -1.057  -3.794  -2.240  1.00  0.00     0.049 A
ATOM      6  C   UNL     1      -1.512  -3.119  -1.093  1.00  0.00     0.125 A
ENDROOT
BRANCH   3   7
ATOM      7  N   UNL     1       2.540  -2.992  -2.384  1.00  0.00    -0.324 N
ATOM      8  H   UNL     1       2.790  -3.648  -3.109  1.00  0.00     0.170 HD
BRANCH   7   9
ATOM      9  C   UNL     1       3.666  -2.248  -2.044  1.00  0.00     0.227 A
ATOM     10  C   UNL     1       5.949  -0.834  -1.522  1.00  0.00    -0.006 A
ATOM     11  C   UNL     1       5.902  -1.890  -2.407  1.00  0.00     0.120 A
ATOM     12  C   UNL     1       4.746  -0.552  -0.897  1.00  0.00     0.079 A
ATOM     13  N   UNL     1       4.791  -2.598  -2.685  1.00  0.00    -0.221 NA
ATOM     14  N   UNL     1       3.614  -1.242  -1.167  1.00  0.00    -0.212 NA
ATOM     15  C   UNL     1       7.218  -0.083  -1.287  1.00  0.00     0.048 C
BRANCH  12  16
ATOM     16  C   UNL     1       4.559   0.530   0.083  1.00  0.00     0.001 A
ATOM     17  C   UNL     1       5.256   0.558   1.301  1.00  0.00     0.010 A
ATOM     18  C   UNL     1       3.621   1.547  -0.164  1.00  0.00     0.016 A
ATOM     19  C   UNL     1       5.026   1.570   2.237  1.00  0.00     0.001 A
ATOM     20  C   UNL     1       3.373   2.565   0.771  1.00  0.00    -0.022 A
ATOM     21  C   UNL     1       4.084   2.564   1.976  1.00  0.00     0.006 A
BRANCH  20  22
ATOM     22  C   UNL     1       2.304   3.598   0.510  1.00  0.00     0.196 C
BRANCH  22  23
ATOM     23  O   UNL     1       1.111   3.325   1.247  1.00  0.00    -0.372 OA
BRANCH  23  24
ATOM     24  C   UNL     1       0.362   2.249   0.675  1.00  0.00     0.192 C
ATOM     25  G   UNL     1      -0.893   2.059   1.485  1.00  0.00     0.000 C
ENDBRANCH  23  24
ENDBRANCH  22  23
ENDBRANCH  20  22
ENDBRANCH  12  16
ENDBRANCH   7   9
ENDBRANCH   3   7
BRANCH   1  26
ATOM     26  C   UNL     1      -0.905  -1.678   0.973  1.00  0.00     0.200 C
BRANCH  26  27
ATOM     27  O   UNL     1       0.165  -0.843   1.429  1.00  0.00    -0.373 OA
BRANCH  27  28
ATOM     28  C   UNL     1      -0.140  -0.109   2.612  1.00  0.00     0.188 C
BRANCH  28  29
ATOM     29  C   UNL     1      -1.085   1.027   2.338  1.00  0.00     0.004 C
ATOM     30  C   UNL     1      -0.893   2.059   1.485  1.00  0.00    -0.033 C
ATOM     31  G   UNL     1       0.362   2.249   0.675  1.00  0.00     0.000 C
BRANCH  30  32
ATOM     32  C   UNL     1      -1.991   3.070   1.238  1.00  0.00     0.114 C
BRANCH  32  33
ATOM     33  N   UNL     1      -2.606   2.980  -0.096  1.00  0.00    -0.311 NA
ATOM     34  H   UNL     1      -3.387   3.631  -0.140  1.00  0.00     0.123 HD
BRANCH  33  35
ATOM     35  C   UNL     1      -3.064   1.626  -0.446  1.00  0.00     0.100 C
ATOM     36  G   UNL     1      -4.311   1.113   0.321  1.00  0.00     0.000 C
ENDBRANCH  33  35
ENDBRANCH  32  33
ENDBRANCH  30  32
ENDBRANCH  28  29
ENDBRANCH  27  28
ENDBRANCH  26  27
ENDBRANCH   1  26
BRANCH   6  37
ATOM     37  O   UNL     1      -2.852  -3.335  -0.934  1.00  0.00    -0.492 OA
BRANCH  37  38
ATOM     38  C   UNL     1      -3.664  -2.620  -0.013  1.00  0.00     0.245 C
BRANCH  38  39
ATOM     39  C   UNL     1      -4.033  -1.218  -0.540  1.00  0.00     0.126 C
BRANCH  39  40
ATOM     40  N   UNL     1      -4.430  -0.342   0.573  1.00  0.00    -0.296 NA
ATOM     41  C   UNL     1      -5.837  -0.530   0.956  1.00  0.00     0.085 C
ATOM     42  C   UNL     1      -4.311   1.113   0.321  1.00  0.00     0.070 C
ATOM     43  C   UNL     1      -6.635   0.456   0.114  1.00  0.00     0.017 C
ATOM     44  C   UNL     1      -5.629   1.503  -0.351  1.00  0.00     0.022 C
ATOM     45  G   UNL     1      -3.064   1.626  -0.446  1.00  0.00     0.000 C
ENDBRANCH  39  40
ENDBRANCH  38  39
ENDBRANCH  37  38
ENDBRANCH   6  37
TORSDOF 0
