REMARK SMILES CC(C)(C)[C@H]1NC(=O)c2c[nH]c3ncc(nc23)[C@]2(CCCCCC[C@@]3(C#N)CN(C3)C1=O)CC2
REMARK SMILES IDX 6 1 7 2 8 3 5 5 2 6 1 7 3 8 4 9 31 10 32 11 29 12 28 13
REMARK SMILES IDX 30 14 25 15 26 16 27 17 24 18 23 19 22 20 9 22 10 23 17 24
REMARK SMILES IDX 11 25 16 26 12 27 15 28 13 29 14 30 18 32 34 33 33 34 19 35
REMARK SMILES IDX 20 36 21 37
REMARK H PARENT 6 4 11 31
REMARK Flexibility Score:   84.900
ROOT
ATOM      1  N   UNL     1      -2.279   1.274  -0.006  1.00  0.00    -0.340 N
ATOM      2  C   UNL     1      -1.059   1.715  -0.476  1.00  0.00     0.255 C
ATOM      3  O   UNL     1      -0.725   1.593  -1.648  1.00  0.00    -0.269 OA
ATOM      4  H   UNL     1      -2.469   1.328   0.983  1.00  0.00     0.164 HD
ENDROOT
BRANCH   1   5
ATOM      5  C   UNL     1      -3.310   0.791  -0.923  1.00  0.00     0.177 C
BRANCH   5   6
ATOM      6  C   UNL     1      -4.740   0.866  -0.281  1.00  0.00    -0.009 C
ATOM      7  C   UNL     1      -5.829   0.532  -1.323  1.00  0.00     0.013 C
ATOM      8  C   UNL     1      -5.014   2.306   0.214  1.00  0.00     0.013 C
ATOM      9  C   UNL     1      -4.899  -0.097   0.909  1.00  0.00     0.013 C
ENDBRANCH   5   6
BRANCH   5  10
ATOM     10  C   UNL     1      -3.001  -0.597  -1.552  1.00  0.00     0.245 C
ATOM     11  O   UNL     1      -3.510  -0.914  -2.634  1.00  0.00    -0.272 OA
BRANCH  10  12
ATOM     12  N   UNL     1      -2.293  -1.527  -0.848  1.00  0.00    -0.338 N
ATOM     13  C   UNL     1      -2.009  -2.895  -1.242  1.00  0.00     0.143 C
ATOM     14  C   UNL     1      -1.624  -1.605   0.429  1.00  0.00     0.143 C
ATOM     15  C   UNL     1      -1.111  -3.007   0.011  1.00  0.00     0.092 C
ATOM     16  C   UNL     1      -1.523  -4.077   0.901  1.00  0.00     0.073 C
ATOM     17  N   UNL     1      -1.855  -4.923   1.624  1.00  0.00    -0.198 NA
BRANCH  15  18
ATOM     18  C   UNL     1       0.386  -3.064  -0.349  1.00  0.00     0.026 C
BRANCH  18  19
ATOM     19  C   UNL     1       1.293  -3.072   0.889  1.00  0.00     0.002 C
BRANCH  19  20
ATOM     20  C   UNL     1       2.774  -2.929   0.526  1.00  0.00     0.000 C
ATOM     21  G   UNL     1       3.188  -1.466   0.346  1.00  0.00     0.000 C
ENDBRANCH  19  20
ENDBRANCH  18  19
ENDBRANCH  15  18
ENDBRANCH  10  12
ENDBRANCH   5  10
ENDBRANCH   1   5
BRANCH   2  22
ATOM     22  C   UNL     1      -0.210   2.311   0.542  1.00  0.00     0.085 A
ATOM     23  C   UNL     1      -0.631   3.049   1.645  1.00  0.00     0.100 A
ATOM     24  C   UNL     1       1.212   2.283   0.596  1.00  0.00     0.120 A
ATOM     25  N   UNL     1       0.480   3.481   2.327  1.00  0.00    -0.344 N
ATOM     26  N   UNL     1       2.124   1.669  -0.201  1.00  0.00    -0.246 NA
ATOM     27  C   UNL     1       1.604   3.021   1.707  1.00  0.00     0.156 A
ATOM     28  C   UNL     1       3.419   1.854   0.160  1.00  0.00     0.066 A
ATOM     29  N   UNL     1       2.867   3.248   2.114  1.00  0.00    -0.235 NA
ATOM     30  C   UNL     1       3.749   2.635   1.280  1.00  0.00     0.138 A
ATOM     31  H   UNL     1       0.494   4.058   3.157  1.00  0.00     0.168 HD
BRANCH  28  32
ATOM     32  C   UNL     1       4.515   1.181  -0.670  1.00  0.00     0.014 C
ATOM     33  C   UNL     1       5.328   2.089  -1.588  1.00  0.00     0.014 C
ATOM     34  C   UNL     1       4.356   1.119  -2.182  1.00  0.00     0.014 C
BRANCH  32  35
ATOM     35  C   UNL     1       5.251   0.039   0.020  1.00  0.00     0.013 C
BRANCH  35  36
ATOM     36  C   UNL     1       4.626  -1.349  -0.162  1.00  0.00     0.001 C
BRANCH  36  37
ATOM     37  C   UNL     1       3.188  -1.466   0.346  1.00  0.00     0.000 C
ATOM     38  G   UNL     1       2.774  -2.929   0.526  1.00  0.00     0.000 C
ENDBRANCH  36  37
ENDBRANCH  35  36
ENDBRANCH  32  35
ENDBRANCH  28  32
ENDBRANCH   2  22
TORSDOF 1
