REMARK SMILES N#C[C@@H]1C[C@@H]2CCCC3(CC3)c3cnc4[nH]cc(c4n3)C(=O)N[C@H](C3CC3)C(=O)N2C1
REMARK SMILES IDX 24 1 28 2 29 3 30 4 1 5 2 6 3 7 4 8 31 9 5 10 6 11 7 12
REMARK SMILES IDX 23 14 21 15 22 16 18 18 17 19 19 20 16 21 20 22 15 23 12 24
REMARK SMILES IDX 14 25 13 26 9 28 10 29 11 30 8 31 25 33 26 34 27 35
REMARK H PARENT 23 17 16 27
REMARK Flexibility Score:   67.900
ROOT
ATOM      1  C   UNL     1      -2.060   1.114   0.187  1.00  0.00     0.175 C
ENDROOT
BRANCH   1   2
ATOM      2  C   UNL     1      -1.581  -0.297   0.600  1.00  0.00     0.245 C
ATOM      3  O   UNL     1      -0.892  -0.443   1.611  1.00  0.00    -0.272 OA
BRANCH   2   4
ATOM      4  N   UNL     1      -1.833  -1.324  -0.295  1.00  0.00    -0.337 N
ATOM      5  N   UNL     1      -5.644  -3.924  -0.397  1.00  0.00    -0.198 NA
ATOM      6  C   UNL     1      -4.598  -3.528  -0.706  1.00  0.00     0.067 C
ATOM      7  C   UNL     1      -3.285  -3.021  -1.105  1.00  0.00     0.114 C
ATOM      8  C   UNL     1      -2.144  -3.622  -0.269  1.00  0.00     0.045 C
ATOM      9  C   UNL     1      -3.157  -1.508  -0.875  1.00  0.00     0.138 C
ATOM     10  C   UNL     1      -1.058  -2.561  -0.417  1.00  0.00     0.086 C
BRANCH  10  11
ATOM     11  C   UNL     1       0.175  -2.767   0.470  1.00  0.00     0.025 C
BRANCH  11  12
ATOM     12  C   UNL     1       1.347  -1.874   0.015  1.00  0.00     0.003 C
ATOM     13  G   UNL     1       2.215  -1.390   1.183  1.00  0.00     0.000 C
ENDBRANCH  11  12
ENDBRANCH  10  11
ENDBRANCH   2   4
ENDBRANCH   1   2
BRANCH   1  14
ATOM     14  N   UNL     1      -0.802   1.809  -0.025  1.00  0.00    -0.340 N
ATOM     15  C   UNL     1      -0.598   2.780  -0.962  1.00  0.00     0.255 C
ATOM     16  O   UNL     1      -1.499   3.298  -1.613  1.00  0.00    -0.269 OA
ATOM     17  H   UNL     1       0.009   1.450   0.480  1.00  0.00     0.164 HD
BRANCH  15  18
ATOM     18  C   UNL     1       0.804   3.128  -1.147  1.00  0.00     0.085 A
ATOM     19  C   UNL     1       1.277   4.249  -1.818  1.00  0.00     0.100 A
ATOM     20  C   UNL     1       1.955   2.390  -0.744  1.00  0.00     0.120 A
ATOM     21  N   UNL     1       2.651   4.213  -1.814  1.00  0.00    -0.344 N
ATOM     22  N   UNL     1       2.055   1.204  -0.086  1.00  0.00    -0.246 NA
ATOM     23  C   UNL     1       3.076   3.077  -1.186  1.00  0.00     0.156 A
ATOM     24  C   UNL     1       3.316   0.719   0.064  1.00  0.00     0.066 A
ATOM     25  N   UNL     1       4.353   2.685  -1.037  1.00  0.00    -0.235 NA
ATOM     26  C   UNL     1       4.407   1.478  -0.404  1.00  0.00     0.138 A
ATOM     27  H   UNL     1       3.270   4.891  -2.233  1.00  0.00     0.168 HD
BRANCH  24  28
ATOM     28  C   UNL     1       3.495  -0.674   0.732  1.00  0.00     0.014 C
ATOM     29  C   UNL     1       4.639  -1.576   0.286  1.00  0.00     0.014 C
ATOM     30  C   UNL     1       4.714  -0.895   1.621  1.00  0.00     0.014 C
BRANCH  28  31
ATOM     31  C   UNL     1       2.215  -1.390   1.183  1.00  0.00     0.013 C
ATOM     32  G   UNL     1       1.347  -1.874   0.015  1.00  0.00     0.000 C
ENDBRANCH  28  31
ENDBRANCH  24  28
ENDBRANCH  15  18
ENDBRANCH   1  14
BRANCH   1  33
ATOM     33  C   UNL     1      -2.833   1.793   1.282  1.00  0.00     0.021 C
ATOM     34  C   UNL     1      -4.339   1.703   1.334  1.00  0.00     0.006 C
ATOM     35  C   UNL     1      -3.678   3.009   0.988  1.00  0.00     0.006 C
ENDBRANCH   1  33
TORSDOF 1
