REMARK SMILES N#C[C@]12CCCCCC[C@]3(CC3)c3cnc4[nH]cc(c4n3)C(=O)N[C@H](C3CC3)C(=O)N(C1)C2
REMARK SMILES IDX 22 1 23 2 24 3 25 5 29 6 30 7 31 8 1 9 2 10 3 11 32 12 33 13
REMARK SMILES IDX 4 14 5 15 6 16 26 18 27 19 28 20 19 21 18 22 20 23 17 24
REMARK SMILES IDX 21 25 16 26 13 27 15 28 14 29 10 31 11 32 12 33 9 34 8 35
REMARK SMILES IDX 7 36
REMARK H PARENT 24 4 17 30
REMARK Flexibility Score:   84.900
ROOT
ATOM      1  C   UNL     1       2.100  -2.737  -1.281  1.00  0.00     0.255 C
ATOM      2  O   UNL     1       3.209  -2.833  -1.796  1.00  0.00    -0.269 OA
ATOM      3  N   UNL     1       1.765  -1.752  -0.388  1.00  0.00    -0.340 N
ATOM      4  H   UNL     1       0.800  -1.747  -0.063  1.00  0.00     0.164 HD
ENDROOT
BRANCH   3   5
ATOM      5  C   UNL     1       2.485  -0.495  -0.270  1.00  0.00     0.175 C
BRANCH   5   6
ATOM      6  C   UNL     1       1.674   0.522  -1.120  1.00  0.00     0.245 C
ATOM      7  O   UNL     1       0.732   0.168  -1.841  1.00  0.00    -0.272 OA
BRANCH   6   8
ATOM      8  N   UNL     1       2.004   1.842  -1.077  1.00  0.00    -0.338 N
ATOM      9  N   UNL     1       2.709   6.141  -1.225  1.00  0.00    -0.198 NA
ATOM     10  C   UNL     1       2.308   5.101  -0.902  1.00  0.00     0.073 C
ATOM     11  C   UNL     1       1.813   3.800  -0.491  1.00  0.00     0.092 C
ATOM     12  C   UNL     1       1.298   2.952  -1.696  1.00  0.00     0.143 C
ATOM     13  C   UNL     1       2.933   2.705  -0.382  1.00  0.00     0.143 C
BRANCH  11  14
ATOM     14  C   UNL     1       0.974   3.905   0.809  1.00  0.00     0.026 C
BRANCH  14  15
ATOM     15  C   UNL     1      -0.546   3.899   0.584  1.00  0.00     0.002 C
BRANCH  15  16
ATOM     16  C   UNL     1      -1.123   2.492   0.792  1.00  0.00     0.000 C
ATOM     17  G   UNL     1      -2.598   2.375   0.400  1.00  0.00     0.000 C
ENDBRANCH  15  16
ENDBRANCH  14  15
ENDBRANCH  11  14
ENDBRANCH   6   8
ENDBRANCH   5   6
BRANCH   5  18
ATOM     18  C   UNL     1       2.535  -0.159   1.202  1.00  0.00     0.021 C
ATOM     19  C   UNL     1       3.842   0.175   1.886  1.00  0.00     0.006 C
ATOM     20  C   UNL     1       3.171  -1.133   2.172  1.00  0.00     0.006 C
ENDBRANCH   5  18
ENDBRANCH   3   5
BRANCH   1  21
ATOM     21  C   UNL     1       0.997  -3.637  -1.599  1.00  0.00     0.085 A
ATOM     22  C   UNL     1       1.046  -4.738  -2.445  1.00  0.00     0.100 A
ATOM     23  C   UNL     1      -0.359  -3.524  -1.185  1.00  0.00     0.120 A
ATOM     24  N   UNL     1      -0.225  -5.253  -2.568  1.00  0.00    -0.344 N
ATOM     25  N   UNL     1      -0.938  -2.615  -0.358  1.00  0.00    -0.246 NA
ATOM     26  C   UNL     1      -1.099  -4.497  -1.837  1.00  0.00     0.156 A
ATOM     27  C   UNL     1      -2.293  -2.676  -0.298  1.00  0.00     0.066 A
ATOM     28  N   UNL     1      -2.437  -4.646  -1.778  1.00  0.00    -0.235 NA
ATOM     29  C   UNL     1      -2.991  -3.670  -1.001  1.00  0.00     0.138 A
ATOM     30  H   UNL     1      -0.501  -6.033  -3.146  1.00  0.00     0.168 HD
BRANCH  27  31
ATOM     31  C   UNL     1      -2.982  -1.582   0.536  1.00  0.00     0.014 C
ATOM     32  C   UNL     1      -4.323  -1.830   1.208  1.00  0.00     0.014 C
ATOM     33  C   UNL     1      -3.071  -1.872   2.032  1.00  0.00     0.014 C
BRANCH  31  34
ATOM     34  C   UNL     1      -2.576  -0.173   0.084  1.00  0.00     0.013 C
BRANCH  34  35
ATOM     35  C   UNL     1      -3.217   1.022   0.799  1.00  0.00     0.001 C
BRANCH  35  36
ATOM     36  C   UNL     1      -2.598   2.375   0.400  1.00  0.00     0.000 C
ATOM     37  G   UNL     1      -1.123   2.492   0.792  1.00  0.00     0.000 C
ENDBRANCH  35  36
ENDBRANCH  34  35
ENDBRANCH  31  34
ENDBRANCH  27  31
ENDBRANCH   1  21
TORSDOF 1
