REMARK SMILES CN1CCN2c3ccc(cn3)-c3cnc4cccc(c4n3)-c3cc(F)c(c(F)c3)CN3CCS(=O)(=O)C[C@H]3CCC[C@@H]2C1
REMARK SMILES IDX 22 1 23 2 24 3 25 4 26 5 27 6 28 7 29 8 19 9 12 10 13 11
REMARK SMILES IDX 21 12 14 13 20 14 15 15 16 16 18 17 17 18 9 19 6 20 7 21
REMARK SMILES IDX 11 22 8 23 10 24 5 25 2 26 3 27 43 28 4 29 42 30 1 31 30 33
REMARK SMILES IDX 31 34 32 35 38 36 33 37 37 38 34 39 35 40 36 41 39 42 40 43
REMARK SMILES IDX 41 44
REMARK H PARENT
REMARK Flexibility Score:   82.900
ROOT
ATOM      1  C   UNL     1       3.878  -1.019  -0.591  1.00  0.00    -0.010 A
ATOM      2  C   UNL     1       3.012  -0.675  -1.642  1.00  0.00     0.048 A
ATOM      3  C   UNL     1       1.944  -1.502  -1.991  1.00  0.00     0.131 A
ATOM      4  F   UNL     1       1.152  -1.126  -3.006  1.00  0.00    -0.207 F
ATOM      5  C   UNL     1       1.684  -2.691  -1.312  1.00  0.00     0.038 A
ATOM      6  C   UNL     1       2.574  -3.054  -0.299  1.00  0.00     0.131 A
ATOM      7  F   UNL     1       2.419  -4.218   0.348  1.00  0.00    -0.207 F
ATOM      8  C   UNL     1       3.649  -2.237   0.065  1.00  0.00     0.048 A
ENDROOT
BRANCH   1   9
ATOM      9  C   UNL     1       4.972  -0.111  -0.177  1.00  0.00     0.010 A
ATOM     10  C   UNL     1       3.193   2.909   0.738  1.00  0.00     0.091 A
ATOM     11  C   UNL     1       4.238   3.738   1.088  1.00  0.00     0.140 A
ATOM     12  N   UNL     1       3.424   1.642   0.326  1.00  0.00    -0.244 NA
ATOM     13  N   UNL     1       5.530   3.331   1.042  1.00  0.00    -0.252 NA
ATOM     14  C   UNL     1       4.696   1.201   0.258  1.00  0.00     0.097 A
ATOM     15  C   UNL     1       5.756   2.063   0.630  1.00  0.00     0.089 A
ATOM     16  C   UNL     1       7.059   1.591   0.571  1.00  0.00     0.030 A
ATOM     17  C   UNL     1       6.304  -0.555  -0.219  1.00  0.00     0.011 A
ATOM     18  C   UNL     1       7.343   0.291   0.153  1.00  0.00     0.003 A
BRANCH  10  19
ATOM     19  C   UNL     1       1.787   3.267   0.764  1.00  0.00     0.020 A
ATOM     20  C   UNL     1      -0.967   3.447   0.477  1.00  0.00     0.128 A
ATOM     21  C   UNL     1      -0.425   2.958   1.666  1.00  0.00     0.047 A
ATOM     22  N   UNL     1      -0.175   3.977  -0.479  1.00  0.00    -0.239 NA
ATOM     23  C   UNL     1       0.958   2.861   1.808  1.00  0.00     0.016 A
ATOM     24  C   UNL     1       1.166   3.854  -0.331  1.00  0.00     0.124 A
BRANCH  20  25
ATOM     25  N   UNL     1      -2.312   3.261   0.197  1.00  0.00    -0.351 N
ATOM     26  N   UNL     1      -5.153   3.041  -0.072  1.00  0.00    -0.303 NA
ATOM     27  C   UNL     1      -4.448   4.248  -0.577  1.00  0.00     0.105 C
ATOM     28  C   UNL     1      -4.320   1.843  -0.298  1.00  0.00     0.109 C
ATOM     29  C   UNL     1      -2.918   4.128  -0.813  1.00  0.00     0.134 C
ATOM     30  C   UNL     1      -2.882   1.891   0.313  1.00  0.00     0.097 C
ATOM     31  C   UNL     1      -5.481   3.192   1.346  1.00  0.00     0.105 C
ATOM     32  G   UNL     1      -1.978   0.833  -0.373  1.00  0.00     0.000 C
ENDBRANCH  20  25
ENDBRANCH  10  19
ENDBRANCH   1   9
BRANCH   5  33
ATOM     33  C   UNL     1       0.525  -3.569  -1.712  1.00  0.00     0.126 C
BRANCH  33  34
ATOM     34  N   UNL     1      -0.348  -3.949  -0.573  1.00  0.00    -0.294 NA
ATOM     35  C   UNL     1      -0.693  -5.382  -0.696  1.00  0.00     0.101 C
ATOM     36  C   UNL     1      -1.562  -3.090  -0.404  1.00  0.00     0.072 C
ATOM     37  C   UNL     1      -1.281  -5.955   0.577  1.00  0.00     0.152 C
ATOM     38  C   UNL     1      -2.267  -3.426   0.916  1.00  0.00     0.156 C
ATOM     39  S   UNL     1      -2.779  -5.116   0.971  1.00  0.00     0.153 S
ATOM     40  O   UNL     1      -3.127  -5.436   2.342  1.00  0.00    -0.229 OA
ATOM     41  O   UNL     1      -3.731  -5.343  -0.101  1.00  0.00    -0.229 OA
BRANCH  36  42
ATOM     42  C   UNL     1      -1.233  -1.573  -0.437  1.00  0.00     0.020 C
BRANCH  42  43
ATOM     43  C   UNL     1      -2.396  -0.620  -0.106  1.00  0.00     0.004 C
BRANCH  43  44
ATOM     44  C   UNL     1      -1.978   0.833  -0.373  1.00  0.00     0.026 C
ATOM     45  G   UNL     1      -2.882   1.891   0.313  1.00  0.00     0.000 C
ENDBRANCH  43  44
ENDBRANCH  42  43
ENDBRANCH  36  42
ENDBRANCH  33  34
ENDBRANCH   5  33
TORSDOF 0
