REMARK SMILES CC(C)(C)[C@H]1NC(=O)c2c[nH]c3ncc(nc23)[C@]2(CCC[C@@]3(C#N)CN(C3)C1=O)CC2
REMARK SMILES IDX 6 1 7 2 8 3 5 5 2 6 1 7 3 8 4 9 28 10 29 11 26 12 25 13
REMARK SMILES IDX 27 14 22 15 23 16 24 17 21 18 9 20 10 21 17 22 11 23 16 24
REMARK SMILES IDX 12 25 15 26 13 27 14 28 18 30 30 31 31 32 19 33 20 34
REMARK H PARENT 6 4 11 29
REMARK Flexibility Score:   64.900
ROOT
ATOM      1  N   UNL     1      -1.245  -1.034   0.640  1.00  0.00    -0.340 N
ATOM      2  C   UNL     1      -1.181  -2.398   0.832  1.00  0.00     0.255 C
ATOM      3  O   UNL     1      -1.908  -3.018   1.598  1.00  0.00    -0.269 OA
ATOM      4  H   UNL     1      -0.470  -0.634   0.125  1.00  0.00     0.164 HD
ENDROOT
BRANCH   1   5
ATOM      5  C   UNL     1      -2.087  -0.137   1.438  1.00  0.00     0.177 C
BRANCH   5   6
ATOM      6  C   UNL     1      -3.621  -0.084   1.073  1.00  0.00    -0.009 C
ATOM      7  C   UNL     1      -4.303  -1.456   1.258  1.00  0.00     0.013 C
ATOM      8  C   UNL     1      -3.895   0.366  -0.368  1.00  0.00     0.013 C
ATOM      9  C   UNL     1      -4.349   0.895   2.026  1.00  0.00     0.013 C
ENDBRANCH   5   6
BRANCH   5  10
ATOM     10  C   UNL     1      -1.432   1.273   1.526  1.00  0.00     0.245 C
ATOM     11  O   UNL     1      -1.395   1.864   2.612  1.00  0.00    -0.272 OA
BRANCH  10  12
ATOM     12  N   UNL     1      -0.987   1.917   0.403  1.00  0.00    -0.338 N
ATOM     13  C   UNL     1      -0.426   3.264   0.339  1.00  0.00     0.143 C
ATOM     14  C   UNL     1      -0.939   1.695  -1.028  1.00  0.00     0.143 C
ATOM     15  C   UNL     1      -0.043   2.963  -1.131  1.00  0.00     0.092 C
ATOM     16  C   UNL     1      -0.577   3.949  -2.061  1.00  0.00     0.073 C
ATOM     17  N   UNL     1      -1.000   4.727  -2.810  1.00  0.00    -0.198 NA
BRANCH  15  18
ATOM     18  C   UNL     1       1.444   2.706  -1.457  1.00  0.00     0.026 C
ATOM     19  G   UNL     1       2.136   1.761  -0.474  1.00  0.00     0.000 C
ENDBRANCH  15  18
ENDBRANCH  10  12
ENDBRANCH   5  10
ENDBRANCH   1   5
BRANCH   2  20
ATOM     20  C   UNL     1      -0.176  -3.077   0.030  1.00  0.00     0.085 A
ATOM     21  C   UNL     1      -0.297  -4.370  -0.464  1.00  0.00     0.100 A
ATOM     22  C   UNL     1       1.109  -2.620  -0.366  1.00  0.00     0.120 A
ATOM     23  N   UNL     1       0.836  -4.676  -1.175  1.00  0.00    -0.344 N
ATOM     24  N   UNL     1       1.750  -1.453  -0.098  1.00  0.00    -0.246 NA
ATOM     25  C   UNL     1       1.703  -3.622  -1.122  1.00  0.00     0.156 A
ATOM     26  C   UNL     1       3.014  -1.371  -0.599  1.00  0.00     0.066 A
ATOM     27  N   UNL     1       2.923  -3.576  -1.688  1.00  0.00    -0.235 NA
ATOM     28  C   UNL     1       3.546  -2.405  -1.385  1.00  0.00     0.138 A
ATOM     29  H   UNL     1       1.032  -5.546  -1.649  1.00  0.00     0.168 HD
BRANCH  26  30
ATOM     30  C   UNL     1       3.825  -0.109  -0.283  1.00  0.00     0.014 C
ATOM     31  C   UNL     1       4.274   0.092   1.158  1.00  0.00     0.014 C
ATOM     32  C   UNL     1       5.290  -0.242   0.111  1.00  0.00     0.014 C
BRANCH  30  33
ATOM     33  C   UNL     1       3.403   1.128  -1.063  1.00  0.00     0.013 C
BRANCH  33  34
ATOM     34  C   UNL     1       2.136   1.761  -0.474  1.00  0.00     0.003 C
ATOM     35  G   UNL     1       1.444   2.706  -1.457  1.00  0.00     0.000 C
ENDBRANCH  33  34
ENDBRANCH  30  33
ENDBRANCH  26  30
ENDBRANCH   2  20
TORSDOF 1
