REMARK SMILES NC(=O)c1cnc2c3c1[nH]c1cc(ccc13)-c1ccc(nn1)N1CCS(=O)(=O)[C@H](CNCC3(CC3)[C@H](C(F)(F)F)N2)C1
REMARK SMILES IDX 4 1 5 2 6 3 7 4 8 5 9 6 10 7 11 8 12 9 13 10 14 11 15 12
REMARK SMILES IDX 16 13 2 15 1 16 3 17 41 20 36 22 33 23 34 24 35 25 37 27
REMARK SMILES IDX 38 28 39 29 40 30 17 31 18 32 22 33 19 34 21 35 20 36 23 37
REMARK SMILES IDX 24 38 42 39 25 40 29 41 26 42 27 43 28 44 30 45 31 46 32 48
REMARK H PARENT 10 14 1 18 1 19 41 21 31 47
REMARK Flexibility Score:   57.900
ROOT
ATOM      1  C   UNL     1       5.433   0.626  -0.042  1.00  0.00     0.082 A
ATOM      2  C   UNL     1       5.716  -0.718  -0.236  1.00  0.00     0.129 A
ATOM      3  N   UNL     1       4.835  -1.649  -0.685  1.00  0.00    -0.238 NA
ATOM      4  C   UNL     1       3.563  -1.287  -0.974  1.00  0.00     0.136 A
ATOM      5  C   UNL     1       3.213   0.079  -0.920  1.00  0.00     0.051 A
ATOM      6  C   UNL     1       4.139   0.996  -0.419  1.00  0.00     0.065 A
ATOM      7  N   UNL     1       3.514   2.224  -0.368  1.00  0.00    -0.354 N
ATOM      8  C   UNL     1       2.222   2.135  -0.826  1.00  0.00     0.047 A
ATOM      9  C   UNL     1       1.192   3.089  -0.837  1.00  0.00     0.037 A
ATOM     10  C   UNL     1      -0.073   2.694  -1.312  1.00  0.00     0.004 A
ATOM     11  C   UNL     1      -0.211   1.419  -1.896  1.00  0.00     0.011 A
ATOM     12  C   UNL     1       0.829   0.488  -1.883  1.00  0.00     0.012 A
ATOM     13  C   UNL     1       2.044   0.827  -1.269  1.00  0.00     0.011 A
ATOM     14  H   UNL     1       3.958   3.061  -0.007  1.00  0.00     0.167 HD
ENDROOT
BRANCH   1  15
ATOM     15  C   UNL     1       6.383   1.626   0.489  1.00  0.00     0.252 C
ATOM     16  N   UNL     1       7.573   1.198   1.005  1.00  0.00    -0.365 N
ATOM     17  O   UNL     1       6.103   2.821   0.488  1.00  0.00    -0.269 OA
ATOM     18  H   UNL     1       7.863   0.237   1.102  1.00  0.00     0.159 HD
ATOM     19  H   UNL     1       8.195   1.911   1.366  1.00  0.00     0.159 HD
ENDBRANCH   1  15
BRANCH   4  20
ATOM     20  N   UNL     1       2.697  -2.313  -1.323  1.00  0.00    -0.358 N
ATOM     21  H   UNL     1       3.213  -2.947  -1.929  1.00  0.00     0.162 HD
BRANCH  20  22
ATOM     22  C   UNL     1       2.041  -3.076  -0.215  1.00  0.00     0.194 C
BRANCH  22  23
ATOM     23  C   UNL     1       0.492  -2.908  -0.282  1.00  0.00     0.012 C
ATOM     24  C   UNL     1      -0.186  -3.140  -1.634  1.00  0.00     0.011 C
ATOM     25  C   UNL     1      -0.306  -4.183  -0.567  1.00  0.00     0.011 C
ATOM     26  G   UNL     1      -0.102  -1.921   0.732  1.00  0.00     0.000 C
ENDBRANCH  22  23
BRANCH  22  27
ATOM     27  C   UNL     1       2.632  -2.972   1.224  1.00  0.00     0.409 C
ATOM     28  F   UNL     1       2.617  -1.718   1.726  1.00  0.00    -0.169 F
ATOM     29  F   UNL     1       1.915  -3.747   2.082  1.00  0.00    -0.169 F
ATOM     30  F   UNL     1       3.904  -3.434   1.287  1.00  0.00    -0.169 F
ENDBRANCH  22  27
ENDBRANCH  20  22
ENDBRANCH   4  20
BRANCH  10  31
ATOM     31  C   UNL     1      -1.292   3.442  -0.951  1.00  0.00     0.093 A
ATOM     32  C   UNL     1      -2.450   3.406  -1.710  1.00  0.00     0.035 A
ATOM     33  N   UNL     1      -1.366   3.735   0.362  1.00  0.00    -0.148 NA
ATOM     34  C   UNL     1      -3.665   3.273  -1.038  1.00  0.00     0.051 A
ATOM     35  N   UNL     1      -2.555   3.606   1.001  1.00  0.00    -0.132 NA
ATOM     36  C   UNL     1      -3.635   3.135   0.343  1.00  0.00     0.151 A
BRANCH  36  37
ATOM     37  N   UNL     1      -4.465   2.217   1.022  1.00  0.00    -0.353 N
ATOM     38  C   UNL     1      -5.652   1.641   0.366  1.00  0.00     0.134 C
ATOM     39  C   UNL     1      -3.646   1.297   1.860  1.00  0.00     0.139 C
ATOM     40  C   UNL     1      -6.082   0.331   1.005  1.00  0.00     0.159 C
ATOM     41  C   UNL     1      -3.270   0.098   0.986  1.00  0.00     0.141 C
ATOM     42  S   UNL     1      -4.765  -0.877   0.857  1.00  0.00     0.157 S
ATOM     43  O   UNL     1      -4.854  -1.748   2.015  1.00  0.00    -0.228 OA
ATOM     44  O   UNL     1      -4.839  -1.433  -0.482  1.00  0.00    -0.228 OA
BRANCH  41  45
ATOM     45  C   UNL     1      -2.056  -0.676   1.501  1.00  0.00     0.102 C
BRANCH  45  46
ATOM     46  N   UNL     1      -1.489  -1.536   0.447  1.00  0.00    -0.315 NA
ATOM     47  H   UNL     1      -2.066  -2.373   0.355  1.00  0.00     0.122 HD
BRANCH  46  48
ATOM     48  C   UNL     1      -0.102  -1.921   0.732  1.00  0.00     0.090 C
ATOM     49  G   UNL     1       0.492  -2.908  -0.282  1.00  0.00     0.000 C
ENDBRANCH  46  48
ENDBRANCH  45  46
ENDBRANCH  41  45
ENDBRANCH  36  37
ENDBRANCH  10  31
TORSDOF 2
