REMARK SMILES C1=C2\CNC[C@H]3CCN(CCOc4ccc(cc4COC2)Nc2nccc(n2)-c2ccc(s2)COC/1)C3
REMARK SMILES IDX 13 1 14 2 15 3 16 4 17 5 18 6 19 7 20 8 21 9 2 10 1 11 3 13
REMARK SMILES IDX 4 14 5 16 12 18 11 19 10 20 9 21 8 22 37 23 7 24 6 25 22 27
REMARK SMILES IDX 23 29 24 30 28 31 25 32 27 33 26 34 29 35 30 36 33 37 31 38
REMARK SMILES IDX 32 39 34 40 35 41 36 42
REMARK H PARENT 4 15 22 28
REMARK Flexibility Score:   91.800
ROOT
ATOM      1  C   UNL     1      -1.041  -3.142   0.672  1.00  0.00     0.125 A
ATOM      2  C   UNL     1      -0.423  -4.355   0.357  1.00  0.00     0.049 A
ATOM      3  C   UNL     1       0.965  -4.492   0.465  1.00  0.00     0.030 A
ATOM      4  C   UNL     1       1.764  -3.428   0.899  1.00  0.00     0.042 A
ATOM      5  C   UNL     1       1.119  -2.235   1.245  1.00  0.00     0.036 A
ATOM      6  C   UNL     1      -0.280  -2.082   1.168  1.00  0.00     0.022 A
ENDROOT
BRANCH   6   7
ATOM      7  C   UNL     1      -0.881  -0.787   1.641  1.00  0.00     0.200 C
BRANCH   7   8
ATOM      8  O   UNL     1      -0.390   0.276   0.828  1.00  0.00    -0.372 OA
BRANCH   8   9
ATOM      9  C   UNL     1      -0.720   1.550   1.366  1.00  0.00     0.193 C
BRANCH   9  10
ATOM     10  C   UNL     1      -0.443   2.611   0.324  1.00  0.00    -0.033 C
ATOM     11  C   UNL     1       0.367   3.651   0.622  1.00  0.00     0.004 C
ATOM     12  G   UNL     1       0.763   4.799  -0.254  1.00  0.00     0.000 C
BRANCH  10  13
ATOM     13  C   UNL     1      -1.091   2.380  -1.022  1.00  0.00     0.114 C
BRANCH  13  14
ATOM     14  N   UNL     1      -2.521   2.701  -1.004  1.00  0.00    -0.313 NA
ATOM     15  H   UNL     1      -2.868   2.720  -0.049  1.00  0.00     0.123 HD
BRANCH  14  16
ATOM     16  C   UNL     1      -3.309   1.748  -1.795  1.00  0.00     0.086 C
ATOM     17  G   UNL     1      -3.563   0.424  -1.067  1.00  0.00     0.000 C
ENDBRANCH  14  16
ENDBRANCH  13  14
ENDBRANCH  10  13
ENDBRANCH   9  10
ENDBRANCH   8   9
ENDBRANCH   7   8
ENDBRANCH   6   7
BRANCH   1  18
ATOM     18  O   UNL     1      -2.402  -3.003   0.548  1.00  0.00    -0.492 OA
BRANCH  18  19
ATOM     19  C   UNL     1      -2.806  -3.094  -0.829  1.00  0.00     0.245 C
BRANCH  19  20
ATOM     20  C   UNL     1      -4.333  -2.898  -0.982  1.00  0.00     0.126 C
BRANCH  20  21
ATOM     21  N   UNL     1      -4.896  -1.539  -0.959  1.00  0.00    -0.300 NA
ATOM     22  C   UNL     1      -4.898  -0.917   0.370  1.00  0.00     0.085 C
ATOM     23  C   UNL     1      -4.301  -0.601  -1.918  1.00  0.00     0.089 C
ATOM     24  C   UNL     1      -4.476   0.527   0.147  1.00  0.00     0.022 C
ATOM     25  C   UNL     1      -3.563   0.424  -1.067  1.00  0.00     0.018 C
ATOM     26  G   UNL     1      -3.309   1.748  -1.795  1.00  0.00     0.000 C
ENDBRANCH  20  21
ENDBRANCH  19  20
ENDBRANCH  18  19
ENDBRANCH   1  18
BRANCH   4  27
ATOM     27  N   UNL     1       3.155  -3.576   0.912  1.00  0.00    -0.324 N
ATOM     28  H   UNL     1       3.529  -4.511   0.942  1.00  0.00     0.170 HD
BRANCH  27  29
ATOM     29  C   UNL     1       4.188  -2.643   0.901  1.00  0.00     0.227 A
ATOM     30  N   UNL     1       5.426  -3.135   1.067  1.00  0.00    -0.221 NA
ATOM     31  N   UNL     1       3.942  -1.345   0.690  1.00  0.00    -0.212 NA
ATOM     32  C   UNL     1       6.444  -2.255   1.036  1.00  0.00     0.117 A
ATOM     33  C   UNL     1       4.984  -0.494   0.644  1.00  0.00     0.086 A
ATOM     34  C   UNL     1       6.282  -0.908   0.830  1.00  0.00     0.050 A
BRANCH  33  35
ATOM     35  C   UNL     1       4.643   0.910   0.382  1.00  0.00     0.053 A
ATOM     36  C   UNL     1       5.229   2.063   0.872  1.00  0.00     0.022 A
ATOM     37  S   UNL     1       3.360   1.294  -0.697  1.00  0.00    -0.136 S
ATOM     38  C   UNL     1       4.623   3.249   0.362  1.00  0.00     0.018 A
ATOM     39  C   UNL     1       3.592   2.978  -0.514  1.00  0.00     0.031 A
BRANCH  39  40
ATOM     40  C   UNL     1       2.737   3.940  -1.279  1.00  0.00     0.207 C
BRANCH  40  41
ATOM     41  O   UNL     1       2.184   4.870  -0.346  1.00  0.00    -0.372 OA
BRANCH  41  42
ATOM     42  C   UNL     1       0.763   4.799  -0.254  1.00  0.00     0.188 C
ATOM     43  G   UNL     1       0.367   3.651   0.622  1.00  0.00     0.000 C
ENDBRANCH  41  42
ENDBRANCH  40  41
ENDBRANCH  39  40
ENDBRANCH  33  35
ENDBRANCH  27  29
ENDBRANCH   4  27
TORSDOF 0
