REMARK SMILES C1=C2\CNC[C@H]3CCCN3CCOc3ccc(cc3COC2)Nc2nccc(n2)-c2ccc(s2)COC/1
REMARK SMILES IDX 14 1 15 2 16 3 17 4 18 5 19 6 20 7 21 8 22 9 2 10 1 11 3 13
REMARK SMILES IDX 4 14 5 16 13 18 12 19 11 20 10 21 9 22 6 23 8 24 7 25 23 27
REMARK SMILES IDX 24 29 25 30 29 31 26 32 28 33 27 34 30 35 31 36 34 37 32 38
REMARK SMILES IDX 33 39 35 40 36 41 37 42
REMARK H PARENT 4 15 23 28
REMARK Flexibility Score:   91.800
ROOT
ATOM      1  C   UNL     1      -0.664  -3.243   0.784  1.00  0.00     0.125 A
ATOM      2  C   UNL     1      -0.461  -4.235  -0.176  1.00  0.00     0.049 A
ATOM      3  C   UNL     1       0.806  -4.409  -0.747  1.00  0.00     0.030 A
ATOM      4  C   UNL     1       1.888  -3.606  -0.362  1.00  0.00     0.042 A
ATOM      5  C   UNL     1       1.668  -2.656   0.642  1.00  0.00     0.036 A
ATOM      6  C   UNL     1       0.406  -2.465   1.232  1.00  0.00     0.022 A
ENDROOT
BRANCH   6   7
ATOM      7  C   UNL     1       0.254  -1.395   2.283  1.00  0.00     0.200 C
BRANCH   7   8
ATOM      8  O   UNL     1       0.691  -0.106   1.833  1.00  0.00    -0.372 OA
BRANCH   8   9
ATOM      9  C   UNL     1      -0.066   0.359   0.712  1.00  0.00     0.193 C
BRANCH   9  10
ATOM     10  C   UNL     1      -0.091   1.874   0.619  1.00  0.00    -0.033 C
ATOM     11  C   UNL     1       0.751   2.641   1.347  1.00  0.00     0.004 C
ATOM     12  G   UNL     1       0.971   4.117   1.264  1.00  0.00     0.000 C
BRANCH  10  13
ATOM     13  C   UNL     1      -1.063   2.427  -0.406  1.00  0.00     0.114 C
BRANCH  13  14
ATOM     14  N   UNL     1      -2.316   1.689  -0.525  1.00  0.00    -0.311 NA
ATOM     15  H   UNL     1      -2.797   1.930  -1.387  1.00  0.00     0.123 HD
BRANCH  14  16
ATOM     16  C   UNL     1      -3.227   1.847   0.618  1.00  0.00     0.100 C
ATOM     17  G   UNL     1      -4.495   0.944   0.521  1.00  0.00     0.000 C
ENDBRANCH  14  16
ENDBRANCH  13  14
ENDBRANCH  10  13
ENDBRANCH   9  10
ENDBRANCH   8   9
ENDBRANCH   7   8
ENDBRANCH   6   7
BRANCH   1  18
ATOM     18  O   UNL     1      -1.921  -3.032   1.292  1.00  0.00    -0.492 OA
BRANCH  18  19
ATOM     19  C   UNL     1      -2.768  -2.393   0.314  1.00  0.00     0.245 C
BRANCH  19  20
ATOM     20  C   UNL     1      -3.615  -1.313   1.011  1.00  0.00     0.126 C
BRANCH  20  21
ATOM     21  N   UNL     1      -4.257  -0.430   0.033  1.00  0.00    -0.296 NA
ATOM     22  C   UNL     1      -5.551  -0.925  -0.426  1.00  0.00     0.085 C
ATOM     23  C   UNL     1      -4.495   0.944   0.521  1.00  0.00     0.070 C
ATOM     24  C   UNL     1      -6.098   0.265  -1.191  1.00  0.00     0.017 C
ATOM     25  C   UNL     1      -5.519   1.487  -0.486  1.00  0.00     0.022 C
ATOM     26  G   UNL     1      -3.227   1.847   0.618  1.00  0.00     0.000 C
ENDBRANCH  20  21
ENDBRANCH  19  20
ENDBRANCH  18  19
ENDBRANCH   1  18
BRANCH   4  27
ATOM     27  N   UNL     1       3.104  -3.711  -1.045  1.00  0.00    -0.324 N
ATOM     28  H   UNL     1       3.324  -4.585  -1.495  1.00  0.00     0.170 HD
BRANCH  27  29
ATOM     29  C   UNL     1       4.129  -2.785  -1.235  1.00  0.00     0.227 A
ATOM     30  N   UNL     1       5.248  -3.247  -1.815  1.00  0.00    -0.221 NA
ATOM     31  N   UNL     1       3.965  -1.503  -0.887  1.00  0.00    -0.212 NA
ATOM     32  C   UNL     1       6.247  -2.363  -2.010  1.00  0.00     0.117 A
ATOM     33  C   UNL     1       4.978  -0.647  -1.110  1.00  0.00     0.086 A
ATOM     34  C   UNL     1       6.171  -1.037  -1.667  1.00  0.00     0.050 A
BRANCH  33  35
ATOM     35  C   UNL     1       4.728   0.732  -0.687  1.00  0.00     0.053 A
ATOM     36  C   UNL     1       5.493   1.552   0.122  1.00  0.00     0.022 A
ATOM     37  S   UNL     1       3.316   1.545  -1.225  1.00  0.00    -0.136 S
ATOM     38  C   UNL     1       4.886   2.826   0.338  1.00  0.00     0.018 A
ATOM     39  C   UNL     1       3.682   2.956  -0.325  1.00  0.00     0.031 A
BRANCH  39  40
ATOM     40  C   UNL     1       2.748   4.127  -0.342  1.00  0.00     0.207 C
BRANCH  40  41
ATOM     41  O   UNL     1       2.349   4.396   1.006  1.00  0.00    -0.372 OA
BRANCH  41  42
ATOM     42  C   UNL     1       0.971   4.117   1.264  1.00  0.00     0.188 C
ATOM     43  G   UNL     1       0.751   2.641   1.347  1.00  0.00     0.000 C
ENDBRANCH  41  42
ENDBRANCH  40  41
ENDBRANCH  39  40
ENDBRANCH  33  35
ENDBRANCH  27  29
ENDBRANCH   4  27
TORSDOF 0
