REMARK SMILES O=C1Nc2c[nH]nc2-c2nc3ccc(cc3[nH]2)CN2CCOC[C@@H]2CCSCCC2(CC2)N1
REMARK SMILES IDX 18 1 14 2 9 3 10 4 17 5 11 6 16 7 12 8 15 9 13 10 8 12 4 13
REMARK SMILES IDX 5 14 6 15 7 16 3 18 1 19 2 20 33 21 30 24 31 25 32 26 29 27
REMARK SMILES IDX 19 29 20 30 24 31 21 32 23 33 22 34 25 35 26 36 27 37 28 38
REMARK H PARENT 17 11 6 17 3 22 33 23
REMARK Flexibility Score:  107.900
ROOT
ATOM      1  C   UNL     1       3.771  -0.822   0.301  1.00  0.00     0.120 C
ENDROOT
BRANCH   1   2
ATOM      2  C   UNL     1       2.625  -1.801   0.091  1.00  0.00    -0.032 A
ATOM      3  C   UNL     1      -1.565  -3.548  -0.242  1.00  0.00     0.161 A
ATOM      4  N   UNL     1      -0.593  -4.385  -0.577  1.00  0.00    -0.227 NA
ATOM      5  N   UNL     1      -1.031  -2.412   0.299  1.00  0.00    -0.337 N
ATOM      6  C   UNL     1       0.578  -3.684  -0.394  1.00  0.00     0.089 A
ATOM      7  C   UNL     1       0.328  -2.448   0.176  1.00  0.00     0.066 A
ATOM      8  C   UNL     1       1.902  -4.018  -0.707  1.00  0.00     0.031 A
ATOM      9  C   UNL     1       1.310  -1.504   0.472  1.00  0.00     0.033 A
ATOM     10  C   UNL     1       2.908  -3.062  -0.474  1.00  0.00     0.007 A
ATOM     11  H   UNL     1      -1.560  -1.593   0.547  1.00  0.00     0.168 HD
BRANCH   3  12
ATOM     12  C   UNL     1      -3.120  -3.825  -0.409  1.00  0.00     0.151 A
ATOM     13  C   UNL     1      -4.260  -2.966  -0.213  1.00  0.00     0.092 A
ATOM     14  C   UNL     1      -5.341  -3.818  -0.311  1.00  0.00     0.132 A
ATOM     15  N   UNL     1      -4.844  -5.038  -0.649  1.00  0.00    -0.283 N
ATOM     16  N   UNL     1      -3.515  -5.070  -0.730  1.00  0.00    -0.170 NA
ATOM     17  H   UNL     1      -5.352  -5.896  -0.840  1.00  0.00     0.189 HD
BRANCH  13  18
ATOM     18  N   UNL     1      -4.470  -1.609   0.020  1.00  0.00    -0.304 N
ATOM     19  O   UNL     1      -2.536  -0.773  -0.886  1.00  0.00    -0.248 OA
ATOM     20  C   UNL     1      -3.581  -0.608  -0.272  1.00  0.00     0.319 C
ATOM     21  N   UNL     1      -3.943   0.616   0.250  1.00  0.00    -0.332 N
ATOM     22  H   UNL     1      -5.414  -1.337   0.248  1.00  0.00     0.172 HD
ATOM     23  H   UNL     1      -4.845   0.714   0.691  1.00  0.00     0.165 HD
BRANCH  21  24
ATOM     24  C   UNL     1      -3.029   1.753   0.323  1.00  0.00     0.043 C
ATOM     25  C   UNL     1      -3.388   2.874   1.286  1.00  0.00     0.031 C
ATOM     26  C   UNL     1      -2.304   1.908   1.651  1.00  0.00     0.031 C
BRANCH  24  27
ATOM     27  C   UNL     1      -2.236   2.038  -0.964  1.00  0.00     0.039 C
ATOM     28  G   UNL     1      -1.800   3.468  -1.283  1.00  0.00     0.000 C
ENDBRANCH  24  27
ENDBRANCH  21  24
ENDBRANCH  13  18
ENDBRANCH   3  12
ENDBRANCH   1   2
BRANCH   1  29
ATOM     29  N   UNL     1       3.390   0.564   0.680  1.00  0.00    -0.292 NA
ATOM     30  C   UNL     1       4.573   1.258   1.234  1.00  0.00     0.113 C
ATOM     31  C   UNL     1       2.876   1.348  -0.489  1.00  0.00     0.083 C
ATOM     32  C   UNL     1       5.710   1.473   0.214  1.00  0.00     0.175 C
ATOM     33  C   UNL     1       3.957   2.232  -1.177  1.00  0.00     0.179 C
ATOM     34  O   UNL     1       5.248   1.623  -1.135  1.00  0.00    -0.378 OA
BRANCH  31  35
ATOM     35  C   UNL     1       1.697   2.229   0.004  1.00  0.00     0.032 C
BRANCH  35  36
ATOM     36  C   UNL     1       0.979   2.984  -1.119  1.00  0.00     0.071 C
BRANCH  36  37
ATOM     37  S   UNL     1      -0.312   4.071  -0.405  1.00  0.00    -0.162 SA
BRANCH  37  38
ATOM     38  C   UNL     1      -1.800   3.468  -1.283  1.00  0.00     0.072 C
ATOM     39  G   UNL     1      -2.236   2.038  -0.964  1.00  0.00     0.000 C
ENDBRANCH  37  38
ENDBRANCH  36  37
ENDBRANCH  35  36
ENDBRANCH  31  35
ENDBRANCH   1  29
TORSDOF 0
