REMARK SMILES CN1CCN2c3ccc(cc3)-c3cnc4cccc(c4n3)-c3cc(F)c(c(F)c3)CN3CCOC[C@H]3CNC[C@H]2C1
REMARK SMILES IDX 22 1 23 2 24 3 25 4 26 5 27 6 28 7 29 8 19 9 12 10 13 11
REMARK SMILES IDX 21 12 14 13 20 14 15 15 16 16 18 17 17 18 9 19 6 20 7 21
REMARK SMILES IDX 11 22 8 23 10 24 5 25 2 26 3 27 41 28 4 29 40 30 1 31 30 33
REMARK SMILES IDX 31 34 32 35 36 36 33 37 35 38 34 39 37 40 38 41 39 43
REMARK H PARENT 38 42
REMARK Flexibility Score:   82.900
ROOT
ATOM      1  C   UNL     1      -4.439  -0.071  -0.327  1.00  0.00    -0.010 A
ATOM      2  C   UNL     1      -3.741   0.463  -1.420  1.00  0.00     0.048 A
ATOM      3  C   UNL     1      -3.041   1.661  -1.297  1.00  0.00     0.131 A
ATOM      4  F   UNL     1      -2.369   2.118  -2.365  1.00  0.00    -0.207 F
ATOM      5  C   UNL     1      -3.010   2.372  -0.098  1.00  0.00     0.038 A
ATOM      6  C   UNL     1      -3.744   1.861   0.972  1.00  0.00     0.131 A
ATOM      7  F   UNL     1      -3.783   2.525   2.137  1.00  0.00    -0.207 F
ATOM      8  C   UNL     1      -4.451   0.661   0.869  1.00  0.00     0.048 A
ENDROOT
BRANCH   1   9
ATOM      9  C   UNL     1      -5.044  -1.415  -0.406  1.00  0.00     0.010 A
ATOM     10  C   UNL     1      -2.094  -3.495  -0.549  1.00  0.00     0.089 A
ATOM     11  C   UNL     1      -2.662  -4.754  -0.568  1.00  0.00     0.140 A
ATOM     12  N   UNL     1      -2.877  -2.395  -0.529  1.00  0.00    -0.244 NA
ATOM     13  N   UNL     1      -4.006  -4.951  -0.569  1.00  0.00    -0.252 NA
ATOM     14  C   UNL     1      -4.214  -2.548  -0.494  1.00  0.00     0.097 A
ATOM     15  C   UNL     1      -4.780  -3.844  -0.523  1.00  0.00     0.089 A
ATOM     16  C   UNL     1      -6.162  -3.969  -0.488  1.00  0.00     0.030 A
ATOM     17  C   UNL     1      -6.436  -1.577  -0.363  1.00  0.00     0.011 A
ATOM     18  C   UNL     1      -6.994  -2.850  -0.410  1.00  0.00     0.003 A
BRANCH  10  19
ATOM     19  C   UNL     1      -0.664  -3.209  -0.480  1.00  0.00     0.002 A
ATOM     20  C   UNL     1       2.001  -2.238  -0.141  1.00  0.00     0.037 A
ATOM     21  C   UNL     1       1.258  -1.942  -1.287  1.00  0.00     0.026 A
ATOM     22  C   UNL     1       1.409  -3.115   0.784  1.00  0.00     0.026 A
ATOM     23  C   UNL     1      -0.055  -2.401  -1.449  1.00  0.00     0.012 A
ATOM     24  C   UNL     1       0.103  -3.597   0.622  1.00  0.00     0.012 A
BRANCH  20  25
ATOM     25  N   UNL     1       3.234  -1.661   0.108  1.00  0.00    -0.365 N
ATOM     26  N   UNL     1       6.056  -0.697   0.474  1.00  0.00    -0.303 NA
ATOM     27  C   UNL     1       5.665  -2.109   0.291  1.00  0.00     0.105 C
ATOM     28  C   UNL     1       4.874   0.192   0.464  1.00  0.00     0.110 C
ATOM     29  C   UNL     1       4.257  -2.442   0.827  1.00  0.00     0.132 C
ATOM     30  C   UNL     1       3.640  -0.302  -0.365  1.00  0.00     0.110 C
ATOM     31  C   UNL     1       7.043  -0.305  -0.528  1.00  0.00     0.105 C
ATOM     32  G   UNL     1       2.529   0.810  -0.277  1.00  0.00     0.000 C
ENDBRANCH  20  25
ENDBRANCH  10  19
ENDBRANCH   1   9
BRANCH   5  33
ATOM     33  C   UNL     1      -2.213   3.643   0.025  1.00  0.00     0.126 C
BRANCH  33  34
ATOM     34  N   UNL     1      -0.999   3.519   0.865  1.00  0.00    -0.290 NA
ATOM     35  C   UNL     1      -0.485   4.860   1.200  1.00  0.00     0.113 C
ATOM     36  C   UNL     1       0.087   2.740   0.180  1.00  0.00     0.096 C
ATOM     37  C   UNL     1       0.010   5.667  -0.016  1.00  0.00     0.175 C
ATOM     38  C   UNL     1       1.069   3.638  -0.626  1.00  0.00     0.180 C
ATOM     39  O   UNL     1       0.459   4.842  -1.100  1.00  0.00    -0.378 OA
BRANCH  36  40
ATOM     40  C   UNL     1       0.861   1.897   1.252  1.00  0.00     0.102 C
BRANCH  40  41
ATOM     41  N   UNL     1       1.581   0.701   0.823  1.00  0.00    -0.313 NA
ATOM     42  H   UNL     1       1.973   0.175   1.603  1.00  0.00     0.122 HD
BRANCH  41  43
ATOM     43  C   UNL     1       2.529   0.810  -0.277  1.00  0.00     0.107 C
ATOM     44  G   UNL     1       3.640  -0.302  -0.365  1.00  0.00     0.000 C
ENDBRANCH  41  43
ENDBRANCH  40  41
ENDBRANCH  36  40
ENDBRANCH  33  34
ENDBRANCH   5  33
TORSDOF 0
