REMARK SMILES CC(C)(C)[C@H]1NC(=O)c2c[nH]c3ncc(nc23)C2(CCC[C@@H]3[C@@H](C#N)CN3C1=O)CC2
REMARK SMILES IDX 6 1 7 2 8 3 5 5 2 6 1 7 3 8 4 9 28 10 29 11 27 12 26 13
REMARK SMILES IDX 22 14 23 15 24 16 25 17 21 18 9 20 10 21 17 22 11 23 16 24
REMARK SMILES IDX 12 25 15 26 13 27 14 28 18 30 30 31 31 32 19 33 20 34
REMARK H PARENT 6 4 11 29
REMARK Flexibility Score:   64.900
ROOT
ATOM      1  N   UNL     1      -1.347   0.917   0.534  1.00  0.00    -0.340 N
ATOM      2  C   UNL     1      -1.659   2.011  -0.233  1.00  0.00     0.255 C
ATOM      3  O   UNL     1      -2.796   2.273  -0.606  1.00  0.00    -0.269 OA
ATOM      4  H   UNL     1      -0.370   0.789   0.796  1.00  0.00     0.164 HD
ENDROOT
BRANCH   1   5
ATOM      5  C   UNL     1      -2.237  -0.231   0.714  1.00  0.00     0.177 C
BRANCH   5   6
ATOM      6  C   UNL     1      -2.816  -0.312   2.158  1.00  0.00    -0.009 C
ATOM      7  C   UNL     1      -3.742   0.902   2.400  1.00  0.00     0.013 C
ATOM      8  C   UNL     1      -3.674  -1.583   2.313  1.00  0.00     0.013 C
ATOM      9  C   UNL     1      -1.730  -0.296   3.252  1.00  0.00     0.013 C
ENDBRANCH   5   6
BRANCH   5  10
ATOM     10  C   UNL     1      -1.363  -1.428   0.250  1.00  0.00     0.246 C
ATOM     11  O   UNL     1      -0.851  -2.236   1.023  1.00  0.00    -0.272 OA
BRANCH  10  12
ATOM     12  N   UNL     1      -1.099  -1.472  -1.096  1.00  0.00    -0.335 N
ATOM     13  C   UNL     1      -1.702  -0.847  -2.254  1.00  0.00     0.141 C
ATOM     14  C   UNL     1      -0.144  -2.270  -1.853  1.00  0.00     0.104 C
ATOM     15  C   UNL     1      -1.007  -1.933  -3.098  1.00  0.00     0.134 C
ATOM     16  C   UNL     1      -1.869  -3.002  -3.557  1.00  0.00     0.070 C
ATOM     17  N   UNL     1      -2.556  -3.853  -3.943  1.00  0.00    -0.198 NA
BRANCH  14  18
ATOM     18  C   UNL     1       1.255  -1.641  -1.886  1.00  0.00     0.026 C
ATOM     19  G   UNL     1       2.058  -1.964  -0.622  1.00  0.00     0.000 C
ENDBRANCH  14  18
ENDBRANCH  10  12
ENDBRANCH   5  10
ENDBRANCH   1   5
BRANCH   2  20
ATOM     20  C   UNL     1      -0.499   2.789  -0.643  1.00  0.00     0.085 A
ATOM     21  C   UNL     1      -0.522   4.020  -1.286  1.00  0.00     0.100 A
ATOM     22  C   UNL     1       0.869   2.415  -0.557  1.00  0.00     0.120 A
ATOM     23  N   UNL     1       0.771   4.383  -1.582  1.00  0.00    -0.344 N
ATOM     24  N   UNL     1       1.430   1.291  -0.037  1.00  0.00    -0.246 NA
ATOM     25  C   UNL     1       1.626   3.397  -1.176  1.00  0.00     0.156 A
ATOM     26  C   UNL     1       2.774   1.200  -0.206  1.00  0.00     0.066 A
ATOM     27  N   UNL     1       2.959   3.370  -1.361  1.00  0.00    -0.235 NA
ATOM     28  C   UNL     1       3.487   2.221  -0.855  1.00  0.00     0.138 A
ATOM     29  H   UNL     1       1.063   5.222  -2.063  1.00  0.00     0.168 HD
BRANCH  26  30
ATOM     30  C   UNL     1       3.468  -0.050   0.327  1.00  0.00     0.014 C
ATOM     31  C   UNL     1       4.690   0.125   1.222  1.00  0.00     0.014 C
ATOM     32  C   UNL     1       3.391  -0.309   1.826  1.00  0.00     0.014 C
BRANCH  30  33
ATOM     33  C   UNL     1       3.430  -1.271  -0.589  1.00  0.00     0.013 C
BRANCH  33  34
ATOM     34  C   UNL     1       2.058  -1.964  -0.622  1.00  0.00     0.003 C
ATOM     35  G   UNL     1       1.255  -1.641  -1.886  1.00  0.00     0.000 C
ENDBRANCH  33  34
ENDBRANCH  30  33
ENDBRANCH  26  30
ENDBRANCH   2  20
TORSDOF 1
