REMARK SMILES C1=C2\CCC[C@H]3CCN(CCOc4ccc(cc4COC2)Nc2nccc(n2)-c2ccc(s2)COC/1)C3
REMARK SMILES IDX 13 1 14 2 15 3 16 4 17 5 18 6 19 7 20 8 21 9 2 10 1 11 3 13
REMARK SMILES IDX 4 14 12 16 11 17 10 18 9 19 8 20 37 21 7 22 6 23 5 24 22 26
REMARK SMILES IDX 23 28 24 29 28 30 25 31 27 32 26 33 29 34 30 35 33 36 31 37
REMARK SMILES IDX 32 38 34 39 35 40 36 41
REMARK H PARENT 22 27
REMARK Flexibility Score:   91.800
ROOT
ATOM      1  C   UNL     1      -0.990  -2.931  -0.665  1.00  0.00     0.125 A
ATOM      2  C   UNL     1      -0.426  -4.065  -0.067  1.00  0.00     0.049 A
ATOM      3  C   UNL     1       0.913  -4.402  -0.276  1.00  0.00     0.030 A
ATOM      4  C   UNL     1       1.731  -3.588  -1.057  1.00  0.00     0.042 A
ATOM      5  C   UNL     1       1.147  -2.481  -1.684  1.00  0.00     0.036 A
ATOM      6  C   UNL     1      -0.216  -2.138  -1.521  1.00  0.00     0.022 A
ENDROOT
BRANCH   6   7
ATOM      7  C   UNL     1      -0.682  -0.886  -2.229  1.00  0.00     0.200 C
BRANCH   7   8
ATOM      8  O   UNL     1      -0.896   0.245  -1.389  1.00  0.00    -0.372 OA
BRANCH   8   9
ATOM      9  C   UNL     1       0.289   0.657  -0.721  1.00  0.00     0.191 C
BRANCH   9  10
ATOM     10  C   UNL     1       0.080   2.010  -0.074  1.00  0.00    -0.046 C
ATOM     11  C   UNL     1       0.923   3.017  -0.380  1.00  0.00     0.003 C
ATOM     12  G   UNL     1       1.089   4.330   0.314  1.00  0.00     0.000 C
BRANCH  10  13
ATOM     13  C   UNL     1      -1.019   2.080   0.968  1.00  0.00     0.033 C
BRANCH  13  14
ATOM     14  C   UNL     1      -2.315   2.657   0.377  1.00  0.00     0.005 C
ATOM     15  G   UNL     1      -3.580   2.419   1.220  1.00  0.00     0.000 C
ENDBRANCH  13  14
ENDBRANCH  10  13
ENDBRANCH   9  10
ENDBRANCH   8   9
ENDBRANCH   7   8
ENDBRANCH   6   7
BRANCH   1  16
ATOM     16  O   UNL     1      -2.201  -2.584  -0.142  1.00  0.00    -0.492 OA
BRANCH  16  17
ATOM     17  C   UNL     1      -3.323  -2.572  -1.023  1.00  0.00     0.245 C
BRANCH  17  18
ATOM     18  C   UNL     1      -4.606  -2.242  -0.210  1.00  0.00     0.126 C
BRANCH  18  19
ATOM     19  N   UNL     1      -4.461  -1.156   0.761  1.00  0.00    -0.300 NA
ATOM     20  C   UNL     1      -5.688  -0.715   1.416  1.00  0.00     0.085 C
ATOM     21  C   UNL     1      -3.821   0.050   0.255  1.00  0.00     0.088 C
ATOM     22  C   UNL     1      -5.332   0.670   1.982  1.00  0.00     0.020 C
ATOM     23  C   UNL     1      -3.909   0.945   1.480  1.00  0.00     0.004 C
BRANCH  23  24
ATOM     24  C   UNL     1      -3.580   2.419   1.220  1.00  0.00     0.005 C
ATOM     25  G   UNL     1      -2.315   2.657   0.377  1.00  0.00     0.000 C
ENDBRANCH  23  24
ENDBRANCH  18  19
ENDBRANCH  17  18
ENDBRANCH  16  17
ENDBRANCH   1  16
BRANCH   4  26
ATOM     26  N   UNL     1       3.108  -3.818  -1.090  1.00  0.00    -0.324 N
ATOM     27  H   UNL     1       3.436  -4.769  -1.034  1.00  0.00     0.170 HD
BRANCH  26  28
ATOM     28  C   UNL     1       4.173  -2.921  -1.033  1.00  0.00     0.227 A
ATOM     29  N   UNL     1       5.395  -3.463  -1.159  1.00  0.00    -0.221 NA
ATOM     30  N   UNL     1       3.968  -1.616  -0.790  1.00  0.00    -0.212 NA
ATOM     31  C   UNL     1       6.451  -2.637  -1.046  1.00  0.00     0.117 A
ATOM     32  C   UNL     1       5.053  -0.828  -0.648  1.00  0.00     0.086 A
ATOM     33  C   UNL     1       6.340  -1.296  -0.788  1.00  0.00     0.050 A
BRANCH  32  34
ATOM     34  C   UNL     1       4.786   0.580  -0.336  1.00  0.00     0.053 A
ATOM     35  C   UNL     1       5.313   1.717  -0.920  1.00  0.00     0.022 A
ATOM     36  S   UNL     1       3.727   0.990   0.952  1.00  0.00    -0.136 S
ATOM     37  C   UNL     1       4.800   2.917  -0.345  1.00  0.00     0.018 A
ATOM     38  C   UNL     1       3.893   2.673   0.667  1.00  0.00     0.031 A
BRANCH  38  39
ATOM     39  C   UNL     1       3.097   3.665   1.468  1.00  0.00     0.207 C
BRANCH  39  40
ATOM     40  O   UNL     1       2.481   4.582   0.553  1.00  0.00    -0.372 OA
BRANCH  40  41
ATOM     41  C   UNL     1       1.089   4.330   0.314  1.00  0.00     0.188 C
ATOM     42  G   UNL     1       0.923   3.017  -0.380  1.00  0.00     0.000 C
ENDBRANCH  40  41
ENDBRANCH  39  40
ENDBRANCH  38  39
ENDBRANCH  32  34
ENDBRANCH  26  28
ENDBRANCH   4  26
TORSDOF 0
