MODEL 1
REMARK VINA RESULT:      -7.8      0.000      0.000
REMARK SMILES N#CC1CN(C(=O)[C@@H]2NC(=O)c3c[nH]c4ncc(nc34)[C@]3(CCNCC[C@]24CC4)CC3)C1
REMARK SMILES IDX 12 1 13 2 14 3 15 4 16 5 17 6 18 7 19 8 20 9 10 11 9 12
REMARK SMILES IDX 11 13 8 15 6 16 1 17 2 18 3 19 4 20 32 21 5 22 7 23 27 24
REMARK SMILES IDX 29 25 28 26 26 27 21 29 31 30 30 31 22 32 23 33 24 34 25 36
REMARK H PARENT 14 10 9 14 24 35
REMARK Flexibility Score:   64.900
ROOT
ATOM      1  C   UNL     1      31.774  10.352  -3.953  1.00  0.00     0.085 A
ATOM      2  C   UNL     1      32.469   9.764  -2.904  1.00  0.00     0.100 A
ATOM      3  N   UNL     1      32.098   8.443  -2.820  1.00  0.00    -0.344 N
ATOM      4  C   UNL     1      31.190   8.162  -3.800  1.00  0.00     0.156 A
ATOM      5  N   UNL     1      30.646   6.959  -4.059  1.00  0.00    -0.235 NA
ATOM      6  C   UNL     1      29.823   7.032  -5.142  1.00  0.00     0.138 A
ATOM      7  C   UNL     1      29.522   8.193  -5.874  1.00  0.00     0.066 A
ATOM      8  N   UNL     1      30.070   9.391  -5.537  1.00  0.00    -0.246 NA
ATOM      9  C   UNL     1      30.944   9.336  -4.496  1.00  0.00     0.120 A
ATOM     10  H   UNL     1      32.456   7.760  -2.167  1.00  0.00     0.168 HD
ENDROOT
BRANCH   1  11
ATOM     11  C   UNL     1      31.917  11.729  -4.404  1.00  0.00     0.255 C
ATOM     12  N   UNL     1      31.122  12.623  -3.730  1.00  0.00    -0.340 N
ATOM     13  O   UNL     1      32.701  12.052  -5.290  1.00  0.00    -0.269 OA
ATOM     14  H   UNL     1      30.498  12.242  -3.023  1.00  0.00     0.164 HD
BRANCH  12  15
ATOM     15  C   UNL     1      30.884  13.992  -4.159  1.00  0.00     0.178 C
BRANCH  15  16
ATOM     16  C   UNL     1      29.422  14.400  -4.503  1.00  0.00     0.245 C
ATOM     17  N   UNL     1      28.418  19.718  -6.086  1.00  0.00    -0.198 NA
ATOM     18  C   UNL     1      28.592  18.581  -6.233  1.00  0.00     0.069 C
ATOM     19  C   UNL     1      28.822  17.170  -6.416  1.00  0.00     0.131 C
ATOM     20  C   UNL     1      30.080  16.614  -5.723  1.00  0.00     0.140 C
ATOM     21  C   UNL     1      27.993  16.238  -5.522  1.00  0.00     0.140 C
ATOM     22  N   UNL     1      29.238  15.550  -5.227  1.00  0.00    -0.338 N
ATOM     23  O   UNL     1      28.436  13.863  -3.990  1.00  0.00    -0.272 OA
ENDBRANCH  15  16
BRANCH  15  24
ATOM     24  C   UNL     1      31.769  14.955  -3.322  1.00  0.00     0.001 C
ATOM     25  C   UNL     1      32.974  15.631  -3.977  1.00  0.00     0.010 C
ATOM     26  C   UNL     1      33.202  14.600  -2.928  1.00  0.00     0.010 C
BRANCH  24  27
ATOM     27  C   UNL     1      30.974  15.770  -2.292  1.00  0.00     0.025 C
ATOM     28  G   UNL     1      30.958  15.143  -0.886  1.00  0.00     0.000 C
ENDBRANCH  24  27
ENDBRANCH  15  24
ENDBRANCH  12  15
ENDBRANCH   1  11
BRANCH   7  29
ATOM     29  C   UNL     1      28.645   8.161  -7.126  1.00  0.00     0.015 C
ATOM     30  C   UNL     1      28.596   6.865  -7.926  1.00  0.00     0.014 C
ATOM     31  C   UNL     1      29.285   8.058  -8.505  1.00  0.00     0.014 C
BRANCH  29  32
ATOM     32  C   UNL     1      27.361   8.976  -6.988  1.00  0.00     0.029 C
BRANCH  32  33
ATOM     33  C   UNL     1      26.141   8.111  -6.633  1.00  0.00     0.082 C
BRANCH  33  34
ATOM     34  N   UNL     1      25.861   8.154  -5.193  1.00  0.00    -0.317 NA
ATOM     35  H   UNL     1      25.042   8.737  -5.017  1.00  0.00     0.122 HD
BRANCH  34  36
ATOM     36  C   UNL     1      25.620   6.806  -4.652  1.00  0.00     0.081 C
ATOM     37  G   UNL     1      25.759   5.717  -5.731  1.00  0.00     0.000 C
ENDBRANCH  34  36
ENDBRANCH  33  34
ENDBRANCH  32  33
ENDBRANCH  29  32
ENDBRANCH   7  29
TORSDOF 1
ENDMDL
MODEL 2
REMARK VINA RESULT:      -7.8      2.486      5.805
REMARK SMILES N#CC1CN(C(=O)[C@@H]2NC(=O)c3c[nH]c4ncc(nc34)[C@]3(CCNCC[C@]24CC4)CC3)C1
REMARK SMILES IDX 12 1 13 2 14 3 15 4 16 5 17 6 18 7 19 8 20 9 10 11 9 12
REMARK SMILES IDX 11 13 8 15 6 16 1 17 2 18 3 19 4 20 32 21 5 22 7 23 27 24
REMARK SMILES IDX 29 25 28 26 26 27 21 29 31 30 30 31 22 32 23 33 24 34 25 36
REMARK H PARENT 14 10 9 14 24 35
REMARK Flexibility Score:   64.900
ROOT
ATOM      1  C   UNL     1      29.111  11.798  -4.682  1.00  0.00     0.085 A
ATOM      2  C   UNL     1      28.077  11.108  -5.300  1.00  0.00     0.100 A
ATOM      3  N   UNL     1      28.416   9.778  -5.366  1.00  0.00    -0.344 N
ATOM      4  C   UNL     1      29.641   9.591  -4.792  1.00  0.00     0.156 A
ATOM      5  N   UNL     1      30.271   8.414  -4.626  1.00  0.00    -0.235 NA
ATOM      6  C   UNL     1      31.448   8.593  -3.966  1.00  0.00     0.138 A
ATOM      7  C   UNL     1      31.984   9.825  -3.551  1.00  0.00     0.066 A
ATOM      8  N   UNL     1      31.319  10.987  -3.785  1.00  0.00    -0.246 NA
ATOM      9  C   UNL     1      30.110  10.832  -4.389  1.00  0.00     0.120 A
ATOM     10  H   UNL     1      27.848   9.031  -5.743  1.00  0.00     0.168 HD
ENDROOT
BRANCH   1  11
ATOM     11  C   UNL     1      29.123  13.221  -4.375  1.00  0.00     0.255 C
ATOM     12  N   UNL     1      28.935  14.029  -5.470  1.00  0.00    -0.340 N
ATOM     13  O   UNL     1      29.261  13.646  -3.234  1.00  0.00    -0.269 OA
ATOM     14  H   UNL     1      28.846  13.569  -6.372  1.00  0.00     0.164 HD
BRANCH  12  15
ATOM     15  C   UNL     1      29.166  15.465  -5.475  1.00  0.00     0.178 C
BRANCH  15  16
ATOM     16  C   UNL     1      30.633  15.962  -5.624  1.00  0.00     0.245 C
ATOM     17  N   UNL     1      31.615  21.514  -5.495  1.00  0.00    -0.198 NA
ATOM     18  C   UNL     1      31.569  20.433  -5.076  1.00  0.00     0.069 C
ATOM     19  C   UNL     1      31.498  19.092  -4.552  1.00  0.00     0.131 C
ATOM     20  C   UNL     1      30.149  18.378  -4.755  1.00  0.00     0.140 C
ATOM     21  C   UNL     1      32.137  18.002  -5.423  1.00  0.00     0.140 C
ATOM     22  N   UNL     1      30.912  17.246  -5.228  1.00  0.00    -0.338 N
ATOM     23  O   UNL     1      31.492  15.343  -6.260  1.00  0.00    -0.272 OA
ENDBRANCH  15  16
BRANCH  15  24
ATOM     24  C   UNL     1      28.037  16.165  -6.279  1.00  0.00     0.001 C
ATOM     25  C   UNL     1      27.047  17.074  -5.551  1.00  0.00     0.010 C
ATOM     26  C   UNL     1      26.567  15.781  -6.111  1.00  0.00     0.010 C
BRANCH  24  27
ATOM     27  C   UNL     1      28.464  16.574  -7.696  1.00  0.00     0.025 C
ATOM     28  G   UNL     1      27.845  15.705  -8.805  1.00  0.00     0.000 C
ENDBRANCH  24  27
ENDBRANCH  15  24
ENDBRANCH  12  15
ENDBRANCH   1  11
BRANCH   7  29
ATOM     29  C   UNL     1      33.279   9.918  -2.745  1.00  0.00     0.015 C
ATOM     30  C   UNL     1      34.016   8.621  -2.430  1.00  0.00     0.014 C
ATOM     31  C   UNL     1      33.339   9.366  -1.325  1.00  0.00     0.014 C
BRANCH  29  32
ATOM     32  C   UNL     1      34.106  11.160  -3.067  1.00  0.00     0.029 C
BRANCH  32  33
ATOM     33  C   UNL     1      33.440  12.461  -2.590  1.00  0.00     0.082 C
BRANCH  33  34
ATOM     34  N   UNL     1      33.352  13.442  -3.677  1.00  0.00    -0.317 NA
ATOM     35  H   UNL     1      32.517  13.265  -4.236  1.00  0.00     0.122 HD
BRANCH  34  36
ATOM     36  C   UNL     1      33.302  14.818  -3.156  1.00  0.00     0.081 C
ATOM     37  G   UNL     1      32.094  15.042  -2.229  1.00  0.00     0.000 C
ENDBRANCH  34  36
ENDBRANCH  33  34
ENDBRANCH  32  33
ENDBRANCH  29  32
ENDBRANCH   7  29
TORSDOF 1
ENDMDL
MODEL 3
REMARK VINA RESULT:      -7.5      2.299      8.687
REMARK SMILES N#CC1CN(C(=O)[C@@H]2NC(=O)c3c[nH]c4ncc(nc34)[C@]3(CCNCC[C@]24CC4)CC3)C1
REMARK SMILES IDX 12 1 13 2 14 3 15 4 16 5 17 6 18 7 19 8 20 9 10 11 9 12
REMARK SMILES IDX 11 13 8 15 6 16 1 17 2 18 3 19 4 20 32 21 5 22 7 23 27 24
REMARK SMILES IDX 29 25 28 26 26 27 21 29 31 30 30 31 22 32 23 33 24 34 25 36
REMARK H PARENT 14 10 9 14 24 35
REMARK Flexibility Score:   64.900
ROOT
ATOM      1  C   UNL     1      27.664  12.211  -5.374  1.00  0.00     0.085 A
ATOM      2  C   UNL     1      26.481  12.727  -5.886  1.00  0.00     0.100 A
ATOM      3  N   UNL     1      26.551  14.099  -5.853  1.00  0.00    -0.344 N
ATOM      4  C   UNL     1      27.759  14.481  -5.343  1.00  0.00     0.156 A
ATOM      5  N   UNL     1      28.204  15.744  -5.211  1.00  0.00    -0.235 NA
ATOM      6  C   UNL     1      29.474  15.752  -4.720  1.00  0.00     0.138 A
ATOM      7  C   UNL     1      30.222  14.624  -4.344  1.00  0.00     0.066 A
ATOM      8  N   UNL     1      29.702  13.373  -4.461  1.00  0.00    -0.246 NA
ATOM      9  C   UNL     1      28.457  13.331  -5.006  1.00  0.00     0.120 A
ATOM     10  H   UNL     1      25.846  14.744  -6.182  1.00  0.00     0.168 HD
ENDROOT
BRANCH   1  11
ATOM     11  C   UNL     1      28.009  10.800  -5.283  1.00  0.00     0.255 C
ATOM     12  N   UNL     1      29.060  10.429  -6.086  1.00  0.00    -0.340 N
ATOM     13  O   UNL     1      27.425  10.027  -4.532  1.00  0.00    -0.269 OA
ATOM     14  H   UNL     1      29.462  11.150  -6.681  1.00  0.00     0.164 HD
BRANCH  12  15
ATOM     15  C   UNL     1      29.422   9.050  -6.375  1.00  0.00     0.178 C
BRANCH  15  16
ATOM     16  C   UNL     1      29.960   8.182  -5.201  1.00  0.00     0.245 C
ATOM     17  N   UNL     1      34.497   9.988  -2.381  1.00  0.00    -0.198 NA
ATOM     18  C   UNL     1      33.367   9.803  -2.570  1.00  0.00     0.069 C
ATOM     19  C   UNL     1      31.963   9.585  -2.811  1.00  0.00     0.131 C
ATOM     20  C   UNL     1      31.449  10.070  -4.179  1.00  0.00     0.140 C
ATOM     21  C   UNL     1      31.574   8.162  -3.238  1.00  0.00     0.140 C
ATOM     22  N   UNL     1      30.804   8.782  -4.302  1.00  0.00    -0.338 N
ATOM     23  O   UNL     1      29.833   6.954  -5.160  1.00  0.00    -0.272 OA
ENDBRANCH  15  16
BRANCH  15  24
ATOM     24  C   UNL     1      28.390   8.443  -7.364  1.00  0.00     0.001 C
ATOM     25  C   UNL     1      28.802   8.173  -8.811  1.00  0.00     0.010 C
ATOM     26  C   UNL     1      27.813   9.250  -8.527  1.00  0.00     0.010 C
BRANCH  24  27
ATOM     27  C   UNL     1      27.431   7.442  -6.703  1.00  0.00     0.025 C
ATOM     28  G   UNL     1      25.955   7.879  -6.744  1.00  0.00     0.000 C
ENDBRANCH  24  27
ENDBRANCH  15  24
ENDBRANCH  12  15
ENDBRANCH   1  11
BRANCH   7  29
ATOM     29  C   UNL     1      31.673  14.729  -3.874  1.00  0.00     0.015 C
ATOM     30  C   UNL     1      32.388  13.441  -3.480  1.00  0.00     0.014 C
ATOM     31  C   UNL     1      32.030  14.434  -2.422  1.00  0.00     0.014 C
BRANCH  29  32
ATOM     32  C   UNL     1      32.471  15.805  -4.606  1.00  0.00     0.029 C
BRANCH  32  33
ATOM     33  C   UNL     1      32.510  15.587  -6.128  1.00  0.00     0.082 C
BRANCH  33  34
ATOM     34  N   UNL     1      32.389  16.859  -6.849  1.00  0.00    -0.317 NA
ATOM     35  H   UNL     1      31.882  17.534  -6.277  1.00  0.00     0.122 HD
BRANCH  34  36
ATOM     36  C   UNL     1      33.709  17.410  -7.193  1.00  0.00     0.081 C
ATOM     37  G   UNL     1      33.862  18.873  -6.740  1.00  0.00     0.000 C
ENDBRANCH  34  36
ENDBRANCH  33  34
ENDBRANCH  32  33
ENDBRANCH  29  32
ENDBRANCH   7  29
TORSDOF 1
ENDMDL
MODEL 4
REMARK VINA RESULT:      -7.5      3.212      4.964
REMARK SMILES N#CC1CN(C(=O)[C@@H]2NC(=O)c3c[nH]c4ncc(nc34)[C@]3(CCNCC[C@]24CC4)CC3)C1
REMARK SMILES IDX 12 1 13 2 14 3 15 4 16 5 17 6 18 7 19 8 20 9 10 11 9 12
REMARK SMILES IDX 11 13 8 15 6 16 1 17 2 18 3 19 4 20 32 21 5 22 7 23 27 24
REMARK SMILES IDX 29 25 28 26 26 27 21 29 31 30 30 31 22 32 23 33 24 34 25 36
REMARK H PARENT 14 10 9 14 24 35
REMARK Flexibility Score:   64.900
ROOT
ATOM      1  C   UNL     1      33.447  14.670  -3.119  1.00  0.00     0.085 A
ATOM      2  C   UNL     1      34.707  15.111  -2.736  1.00  0.00     0.100 A
ATOM      3  N   UNL     1      35.467  14.019  -2.395  1.00  0.00    -0.344 N
ATOM      4  C   UNL     1      34.731  12.880  -2.561  1.00  0.00     0.156 A
ATOM      5  N   UNL     1      35.162  11.619  -2.376  1.00  0.00    -0.235 NA
ATOM      6  C   UNL     1      34.179  10.730  -2.688  1.00  0.00     0.138 A
ATOM      7  C   UNL     1      32.873  11.051  -3.095  1.00  0.00     0.066 A
ATOM      8  N   UNL     1      32.482  12.347  -3.222  1.00  0.00    -0.246 NA
ATOM      9  C   UNL     1      33.463  13.257  -2.976  1.00  0.00     0.120 A
ATOM     10  H   UNL     1      36.434  14.029  -2.099  1.00  0.00     0.168 HD
ENDROOT
BRANCH   1  11
ATOM     11  C   UNL     1      32.360  15.510  -3.601  1.00  0.00     0.255 C
ATOM     12  N   UNL     1      32.286  15.595  -4.970  1.00  0.00    -0.340 N
ATOM     13  O   UNL     1      31.572  16.065  -2.844  1.00  0.00    -0.269 OA
ATOM     14  H   UNL     1      33.002  15.105  -5.501  1.00  0.00     0.164 HD
BRANCH  12  15
ATOM     15  C   UNL     1      31.472  16.564  -5.687  1.00  0.00     0.178 C
BRANCH  15  16
ATOM     16  C   UNL     1      30.039  16.846  -5.148  1.00  0.00     0.245 C
ATOM     17  N   UNL     1      25.724  16.675  -8.774  1.00  0.00    -0.198 NA
ATOM     18  C   UNL     1      26.426  16.281  -7.939  1.00  0.00     0.069 C
ATOM     19  C   UNL     1      27.308  15.786  -6.911  1.00  0.00     0.131 C
ATOM     20  C   UNL     1      28.811  15.872  -7.238  1.00  0.00     0.140 C
ATOM     21  C   UNL     1      27.570  16.744  -5.741  1.00  0.00     0.140 C
ATOM     22  N   UNL     1      28.980  16.448  -5.923  1.00  0.00    -0.338 N
ATOM     23  O   UNL     1      29.817  17.579  -4.180  1.00  0.00    -0.272 OA
ENDBRANCH  15  16
BRANCH  15  24
ATOM     24  C   UNL     1      32.365  17.751  -6.140  1.00  0.00     0.001 C
ATOM     25  C   UNL     1      33.407  17.533  -7.238  1.00  0.00     0.010 C
ATOM     26  C   UNL     1      33.864  17.794  -5.845  1.00  0.00     0.010 C
BRANCH  24  27
ATOM     27  C   UNL     1      31.638  19.103  -6.113  1.00  0.00     0.025 C
ATOM     28  G   UNL     1      32.213  20.094  -5.084  1.00  0.00     0.000 C
ENDBRANCH  24  27
ENDBRANCH  15  24
ENDBRANCH  12  15
ENDBRANCH   1  11
BRANCH   7  29
ATOM     29  C   UNL     1      31.860   9.979  -3.498  1.00  0.00     0.015 C
ATOM     30  C   UNL     1      31.230   9.145  -2.390  1.00  0.00     0.014 C
ATOM     31  C   UNL     1      32.200   8.503  -3.328  1.00  0.00     0.014 C
BRANCH  29  32
ATOM     32  C   UNL     1      30.990  10.384  -4.685  1.00  0.00     0.029 C
BRANCH  32  33
ATOM     33  C   UNL     1      29.532  10.667  -4.286  1.00  0.00     0.082 C
BRANCH  33  34
ATOM     34  N   UNL     1      28.885  11.568  -5.246  1.00  0.00    -0.317 NA
ATOM     35  H   UNL     1      27.881  11.603  -5.066  1.00  0.00     0.122 HD
BRANCH  34  36
ATOM     36  C   UNL     1      29.438  12.929  -5.163  1.00  0.00     0.081 C
ATOM     37  G   UNL     1      29.198  13.568  -3.783  1.00  0.00     0.000 C
ENDBRANCH  34  36
ENDBRANCH  33  34
ENDBRANCH  32  33
ENDBRANCH  29  32
ENDBRANCH   7  29
TORSDOF 1
ENDMDL
MODEL 5
REMARK VINA RESULT:      -7.4      2.423      4.921
REMARK SMILES N#CC1CN(C(=O)[C@@H]2NC(=O)c3c[nH]c4ncc(nc34)[C@]3(CCNCC[C@]24CC4)CC3)C1
REMARK SMILES IDX 12 1 13 2 14 3 15 4 16 5 17 6 18 7 19 8 20 9 10 11 9 12
REMARK SMILES IDX 11 13 8 15 6 16 1 17 2 18 3 19 4 20 32 21 5 22 7 23 27 24
REMARK SMILES IDX 29 25 28 26 26 27 21 29 31 30 30 31 22 32 23 33 24 34 25 36
REMARK H PARENT 14 10 9 14 24 35
REMARK Flexibility Score:   64.900
ROOT
ATOM      1  C   UNL     1      33.575  14.688  -3.204  1.00  0.00     0.085 A
ATOM      2  C   UNL     1      34.804  15.153  -2.756  1.00  0.00     0.100 A
ATOM      3  N   UNL     1      35.533  14.084  -2.291  1.00  0.00    -0.344 N
ATOM      4  C   UNL     1      34.806  12.937  -2.442  1.00  0.00     0.156 A
ATOM      5  N   UNL     1      35.217  11.690  -2.148  1.00  0.00    -0.235 NA
ATOM      6  C   UNL     1      34.257  10.783  -2.477  1.00  0.00     0.138 A
ATOM      7  C   UNL     1      32.986  11.077  -3.001  1.00  0.00     0.066 A
ATOM      8  N   UNL     1      32.611  12.362  -3.237  1.00  0.00    -0.246 NA
ATOM      9  C   UNL     1      33.574  13.286  -2.974  1.00  0.00     0.120 A
ATOM     10  H   UNL     1      36.474  14.113  -1.925  1.00  0.00     0.168 HD
ENDROOT
BRANCH   1  11
ATOM     11  C   UNL     1      32.531  15.496  -3.818  1.00  0.00     0.255 C
ATOM     12  N   UNL     1      32.443  15.351  -5.181  1.00  0.00    -0.340 N
ATOM     13  O   UNL     1      31.786  16.216  -3.163  1.00  0.00    -0.269 OA
ATOM     14  H   UNL     1      33.122  14.738  -5.624  1.00  0.00     0.164 HD
BRANCH  12  15
ATOM     15  C   UNL     1      31.675  16.231  -6.049  1.00  0.00     0.178 C
BRANCH  15  16
ATOM     16  C   UNL     1      30.134  16.289  -5.841  1.00  0.00     0.245 C
ATOM     17  N   UNL     1      27.173  11.516  -6.339  1.00  0.00    -0.198 NA
ATOM     18  C   UNL     1      27.714  12.377  -5.781  1.00  0.00     0.069 C
ATOM     19  C   UNL     1      28.399  13.440  -5.089  1.00  0.00     0.131 C
ATOM     20  C   UNL     1      29.840  13.709  -5.559  1.00  0.00     0.140 C
ATOM     21  C   UNL     1      28.050  14.864  -5.544  1.00  0.00     0.140 C
ATOM     22  N   UNL     1      29.482  15.108  -5.596  1.00  0.00    -0.338 N
ATOM     23  O   UNL     1      29.460  17.294  -6.087  1.00  0.00    -0.272 OA
ENDBRANCH  15  16
BRANCH  15  24
ATOM     24  C   UNL     1      32.466  17.548  -6.276  1.00  0.00     0.001 C
ATOM     25  C   UNL     1      33.568  17.593  -7.334  1.00  0.00     0.010 C
ATOM     26  C   UNL     1      33.940  17.683  -5.895  1.00  0.00     0.010 C
BRANCH  24  27
ATOM     27  C   UNL     1      31.609  18.810  -6.093  1.00  0.00     0.025 C
ATOM     28  G   UNL     1      31.887  19.561  -4.778  1.00  0.00     0.000 C
ENDBRANCH  24  27
ENDBRANCH  15  24
ENDBRANCH  12  15
ENDBRANCH   1  11
BRANCH   7  29
ATOM     29  C   UNL     1      32.002   9.982  -3.412  1.00  0.00     0.015 C
ATOM     30  C   UNL     1      31.404   9.114  -2.312  1.00  0.00     0.014 C
ATOM     31  C   UNL     1      32.386   8.514  -3.266  1.00  0.00     0.014 C
BRANCH  29  32
ATOM     32  C   UNL     1      31.112  10.377  -4.587  1.00  0.00     0.029 C
BRANCH  32  33
ATOM     33  C   UNL     1      30.046   9.317  -4.911  1.00  0.00     0.082 C
BRANCH  33  34
ATOM     34  N   UNL     1      29.473   9.530  -6.245  1.00  0.00    -0.317 NA
ATOM     35  H   UNL     1      30.120  10.074  -6.816  1.00  0.00     0.122 HD
BRANCH  34  36
ATOM     36  C   UNL     1      29.191   8.252  -6.918  1.00  0.00     0.081 C
ATOM     37  G   UNL     1      27.722   7.822  -6.751  1.00  0.00     0.000 C
ENDBRANCH  34  36
ENDBRANCH  33  34
ENDBRANCH  32  33
ENDBRANCH  29  32
ENDBRANCH   7  29
TORSDOF 1
ENDMDL
MODEL 6
REMARK VINA RESULT:      -7.4      2.277      3.521
REMARK SMILES N#CC1CN(C(=O)[C@@H]2NC(=O)c3c[nH]c4ncc(nc34)[C@]3(CCNCC[C@]24CC4)CC3)C1
REMARK SMILES IDX 12 1 13 2 14 3 15 4 16 5 17 6 18 7 19 8 20 9 10 11 9 12
REMARK SMILES IDX 11 13 8 15 6 16 1 17 2 18 3 19 4 20 32 21 5 22 7 23 27 24
REMARK SMILES IDX 29 25 28 26 26 27 21 29 31 30 30 31 22 32 23 33 24 34 25 36
REMARK H PARENT 14 10 9 14 24 35
REMARK Flexibility Score:   64.900
ROOT
ATOM      1  C   UNL     1      33.420  11.006  -2.789  1.00  0.00     0.085 A
ATOM      2  C   UNL     1      34.354  10.208  -2.142  1.00  0.00     0.100 A
ATOM      3  N   UNL     1      33.957   8.896  -2.250  1.00  0.00    -0.344 N
ATOM      4  C   UNL     1      32.796   8.828  -2.965  1.00  0.00     0.156 A
ATOM      5  N   UNL     1      32.141   7.706  -3.316  1.00  0.00    -0.235 NA
ATOM      6  C   UNL     1      31.050   8.009  -4.072  1.00  0.00     0.138 A
ATOM      7  C   UNL     1      30.611   9.301  -4.410  1.00  0.00     0.066 A
ATOM      8  N   UNL     1      31.292  10.400  -3.988  1.00  0.00    -0.246 NA
ATOM      9  C   UNL     1      32.421  10.125  -3.282  1.00  0.00     0.120 A
ATOM     10  H   UNL     1      34.452   8.088  -1.896  1.00  0.00     0.168 HD
ENDROOT
BRANCH   1  11
ATOM     11  C   UNL     1      33.497  12.451  -2.946  1.00  0.00     0.255 C
ATOM     12  N   UNL     1      32.289  13.050  -3.208  1.00  0.00    -0.340 N
ATOM     13  O   UNL     1      34.548  13.071  -2.827  1.00  0.00    -0.269 OA
ATOM     14  H   UNL     1      31.482  12.437  -3.301  1.00  0.00     0.164 HD
BRANCH  12  15
ATOM     15  C   UNL     1      32.138  14.423  -3.662  1.00  0.00     0.178 C
BRANCH  15  16
ATOM     16  C   UNL     1      32.401  14.721  -5.167  1.00  0.00     0.245 C
ATOM     17  N   UNL     1      32.980  20.093  -6.781  1.00  0.00    -0.198 NA
ATOM     18  C   UNL     1      33.334  19.028  -6.486  1.00  0.00     0.069 C
ATOM     19  C   UNL     1      33.773  17.709  -6.106  1.00  0.00     0.131 C
ATOM     20  C   UNL     1      33.194  17.180  -4.781  1.00  0.00     0.140 C
ATOM     21  C   UNL     1      33.065  16.543  -6.810  1.00  0.00     0.140 C
ATOM     22  N   UNL     1      32.901  15.956  -5.491  1.00  0.00    -0.338 N
ATOM     23  O   UNL     1      31.994  13.993  -6.078  1.00  0.00    -0.272 OA
ENDBRANCH  15  16
BRANCH  15  24
ATOM     24  C   UNL     1      30.911  15.065  -2.959  1.00  0.00     0.001 C
ATOM     25  C   UNL     1      31.120  16.245  -2.009  1.00  0.00     0.010 C
ATOM     26  C   UNL     1      30.681  14.935  -1.454  1.00  0.00     0.010 C
BRANCH  24  27
ATOM     27  C   UNL     1      29.647  15.075  -3.831  1.00  0.00     0.025 C
ATOM     28  G   UNL     1      29.390  16.420  -4.534  1.00  0.00     0.000 C
ENDBRANCH  24  27
ENDBRANCH  15  24
ENDBRANCH  12  15
ENDBRANCH   1  11
BRANCH   7  29
ATOM     29  C   UNL     1      29.415   9.538  -5.332  1.00  0.00     0.015 C
ATOM     30  C   UNL     1      28.411   8.404  -5.499  1.00  0.00     0.014 C
ATOM     31  C   UNL     1      29.297   8.773  -6.645  1.00  0.00     0.014 C
BRANCH  29  32
ATOM     32  C   UNL     1      28.889  10.970  -5.286  1.00  0.00     0.029 C
BRANCH  32  33
ATOM     33  C   UNL     1      27.353  11.041  -5.275  1.00  0.00     0.082 C
BRANCH  33  34
ATOM     34  N   UNL     1      26.884  12.422  -5.439  1.00  0.00    -0.317 NA
ATOM     35  H   UNL     1      27.446  13.049  -4.863  1.00  0.00     0.122 HD
BRANCH  34  36
ATOM     36  C   UNL     1      26.966  12.853  -6.844  1.00  0.00     0.081 C
ATOM     37  G   UNL     1      27.828  14.118  -7.012  1.00  0.00     0.000 C
ENDBRANCH  34  36
ENDBRANCH  33  34
ENDBRANCH  32  33
ENDBRANCH  29  32
ENDBRANCH   7  29
TORSDOF 1
ENDMDL
MODEL 7
REMARK VINA RESULT:      -7.4      2.594      7.621
REMARK SMILES N#CC1CN(C(=O)[C@@H]2NC(=O)c3c[nH]c4ncc(nc34)[C@]3(CCNCC[C@]24CC4)CC3)C1
REMARK SMILES IDX 12 1 13 2 14 3 15 4 16 5 17 6 18 7 19 8 20 9 10 11 9 12
REMARK SMILES IDX 11 13 8 15 6 16 1 17 2 18 3 19 4 20 32 21 5 22 7 23 27 24
REMARK SMILES IDX 29 25 28 26 26 27 21 29 31 30 30 31 22 32 23 33 24 34 25 36
REMARK H PARENT 14 10 9 14 24 35
REMARK Flexibility Score:   64.900
ROOT
ATOM      1  C   UNL     1      30.754   9.256  -4.235  1.00  0.00     0.085 A
ATOM      2  C   UNL     1      31.239   8.096  -3.645  1.00  0.00     0.100 A
ATOM      3  N   UNL     1      32.395   8.401  -2.967  1.00  0.00    -0.344 N
ATOM      4  C   UNL     1      32.661   9.735  -3.096  1.00  0.00     0.156 A
ATOM      5  N   UNL     1      33.679  10.403  -2.524  1.00  0.00    -0.235 NA
ATOM      6  C   UNL     1      33.605  11.729  -2.822  1.00  0.00     0.138 A
ATOM      7  C   UNL     1      32.646  12.338  -3.650  1.00  0.00     0.066 A
ATOM      8  N   UNL     1      31.664  11.603  -4.235  1.00  0.00    -0.246 NA
ATOM      9  C   UNL     1      31.677  10.283  -3.906  1.00  0.00     0.120 A
ATOM     10  H   UNL     1      32.958   7.762  -2.422  1.00  0.00     0.168 HD
ENDROOT
BRANCH   1  11
ATOM     11  C   UNL     1      29.521   9.370  -5.001  1.00  0.00     0.255 C
ATOM     12  N   UNL     1      29.166   8.220  -5.662  1.00  0.00    -0.340 N
ATOM     13  O   UNL     1      28.854  10.398  -5.025  1.00  0.00    -0.269 OA
ATOM     14  H   UNL     1      29.802   7.429  -5.585  1.00  0.00     0.164 HD
BRANCH  12  15
ATOM     15  C   UNL     1      28.141   8.151  -6.691  1.00  0.00     0.178 C
BRANCH  15  16
ATOM     16  C   UNL     1      28.607   8.078  -8.174  1.00  0.00     0.245 C
ATOM     17  N   UNL     1      25.362  10.450 -12.130  1.00  0.00    -0.198 NA
ATOM     18  C   UNL     1      26.256  10.373 -11.394  1.00  0.00     0.069 C
ATOM     19  C   UNL     1      27.359  10.283 -10.471  1.00  0.00     0.131 C
ATOM     20  C   UNL     1      26.975   9.934  -9.021  1.00  0.00     0.140 C
ATOM     21  C   UNL     1      28.155   8.971 -10.511  1.00  0.00     0.140 C
ATOM     22  N   UNL     1      28.032   8.950  -9.063  1.00  0.00    -0.338 N
ATOM     23  O   UNL     1      29.298   7.156  -8.617  1.00  0.00    -0.272 OA
ENDBRANCH  15  16
BRANCH  15  24
ATOM     24  C   UNL     1      26.987   7.231  -6.207  1.00  0.00     0.001 C
ATOM     25  C   UNL     1      25.542   7.586  -6.561  1.00  0.00     0.010 C
ATOM     26  C   UNL     1      25.987   7.680  -5.143  1.00  0.00     0.010 C
BRANCH  24  27
ATOM     27  C   UNL     1      27.365   5.743  -6.185  1.00  0.00     0.025 C
ATOM     28  G   UNL     1      27.235   5.092  -4.796  1.00  0.00     0.000 C
ENDBRANCH  24  27
ENDBRANCH  15  24
ENDBRANCH  12  15
ENDBRANCH   1  11
BRANCH   7  29
ATOM     29  C   UNL     1      32.598  13.851  -3.863  1.00  0.00     0.015 C
ATOM     30  C   UNL     1      33.638  14.703  -3.143  1.00  0.00     0.014 C
ATOM     31  C   UNL     1      32.208  14.774  -2.714  1.00  0.00     0.014 C
BRANCH  29  32
ATOM     32  C   UNL     1      32.187  14.252  -5.277  1.00  0.00     0.029 C
BRANCH  32  33
ATOM     33  C   UNL     1      30.703  14.643  -5.378  1.00  0.00     0.082 C
BRANCH  33  34
ATOM     34  N   UNL     1      29.878  13.498  -5.779  1.00  0.00    -0.317 NA
ATOM     35  H   UNL     1      29.719  12.889  -4.977  1.00  0.00     0.122 HD
BRANCH  34  36
ATOM     36  C   UNL     1      28.581  13.935  -6.321  1.00  0.00     0.081 C
ATOM     37  G   UNL     1      27.420  13.632  -5.356  1.00  0.00     0.000 C
ENDBRANCH  34  36
ENDBRANCH  33  34
ENDBRANCH  32  33
ENDBRANCH  29  32
ENDBRANCH   7  29
TORSDOF 1
ENDMDL
MODEL 8
REMARK VINA RESULT:      -7.3      2.496      3.698
REMARK SMILES N#CC1CN(C(=O)[C@@H]2NC(=O)c3c[nH]c4ncc(nc34)[C@]3(CCNCC[C@]24CC4)CC3)C1
REMARK SMILES IDX 12 1 13 2 14 3 15 4 16 5 17 6 18 7 19 8 20 9 10 11 9 12
REMARK SMILES IDX 11 13 8 15 6 16 1 17 2 18 3 19 4 20 32 21 5 22 7 23 27 24
REMARK SMILES IDX 29 25 28 26 26 27 21 29 31 30 30 31 22 32 23 33 24 34 25 36
REMARK H PARENT 14 10 9 14 24 35
REMARK Flexibility Score:   64.900
ROOT
ATOM      1  C   UNL     1      33.536  11.676  -2.846  1.00  0.00     0.085 A
ATOM      2  C   UNL     1      34.529  10.975  -2.174  1.00  0.00     0.100 A
ATOM      3  N   UNL     1      34.204   9.639  -2.183  1.00  0.00    -0.344 N
ATOM      4  C   UNL     1      33.030   9.461  -2.858  1.00  0.00     0.156 A
ATOM      5  N   UNL     1      32.431   8.284  -3.115  1.00  0.00    -0.235 NA
ATOM      6  C   UNL     1      31.306   8.476  -3.858  1.00  0.00     0.138 A
ATOM      7  C   UNL     1      30.788   9.716  -4.269  1.00  0.00     0.066 A
ATOM      8  N   UNL     1      31.416  10.876  -3.941  1.00  0.00    -0.246 NA
ATOM      9  C   UNL     1      32.576  10.711  -3.250  1.00  0.00     0.120 A
ATOM     10  H   UNL     1      34.751   8.886  -1.790  1.00  0.00     0.168 HD
ENDROOT
BRANCH   1  11
ATOM     11  C   UNL     1      33.530  13.109  -3.101  1.00  0.00     0.255 C
ATOM     12  N   UNL     1      32.301  13.606  -3.463  1.00  0.00    -0.340 N
ATOM     13  O   UNL     1      34.531  13.804  -2.976  1.00  0.00    -0.269 OA
ATOM     14  H   UNL     1      31.541  12.935  -3.551  1.00  0.00     0.164 HD
BRANCH  12  15
ATOM     15  C   UNL     1      32.086  14.931  -4.020  1.00  0.00     0.178 C
BRANCH  15  16
ATOM     16  C   UNL     1      32.553  15.187  -5.483  1.00  0.00     0.245 C
ATOM     17  N   UNL     1      33.653  20.486  -7.067  1.00  0.00    -0.198 NA
ATOM     18  C   UNL     1      33.902  19.407  -6.719  1.00  0.00     0.069 C
ATOM     19  C   UNL     1      34.210  18.072  -6.273  1.00  0.00     0.131 C
ATOM     20  C   UNL     1      33.438  17.601  -5.026  1.00  0.00     0.140 C
ATOM     21  C   UNL     1      33.527  16.937  -7.048  1.00  0.00     0.140 C
ATOM     22  N   UNL     1      33.164  16.384  -5.754  1.00  0.00    -0.338 N
ATOM     23  O   UNL     1      32.221  14.467  -6.430  1.00  0.00    -0.272 OA
ENDBRANCH  15  16
BRANCH  15  24
ATOM     24  C   UNL     1      30.706  15.468  -3.555  1.00  0.00     0.001 C
ATOM     25  C   UNL     1      29.435  14.704  -3.928  1.00  0.00     0.010 C
ATOM     26  C   UNL     1      29.685  16.038  -4.540  1.00  0.00     0.010 C
BRANCH  24  27
ATOM     27  C   UNL     1      30.748  16.138  -2.173  1.00  0.00     0.025 C
ATOM     28  G   UNL     1      31.173  15.189  -1.038  1.00  0.00     0.000 C
ENDBRANCH  24  27
ENDBRANCH  15  24
ENDBRANCH  12  15
ENDBRANCH   1  11
BRANCH   7  29
ATOM     29  C   UNL     1      29.557   9.825  -5.170  1.00  0.00     0.015 C
ATOM     30  C   UNL     1      28.533   8.697  -5.114  1.00  0.00     0.014 C
ATOM     31  C   UNL     1      29.376   8.862  -6.338  1.00  0.00     0.014 C
BRANCH  29  32
ATOM     32  C   UNL     1      29.051  11.256  -5.334  1.00  0.00     0.029 C
BRANCH  32  33
ATOM     33  C   UNL     1      27.524  11.333  -5.501  1.00  0.00     0.082 C
BRANCH  33  34
ATOM     34  N   UNL     1      27.155  11.583  -6.899  1.00  0.00    -0.317 NA
ATOM     35  H   UNL     1      26.473  10.890  -7.206  1.00  0.00     0.122 HD
BRANCH  34  36
ATOM     36  C   UNL     1      26.588  12.930  -7.071  1.00  0.00     0.081 C
ATOM     37  G   UNL     1      26.358  13.638  -5.723  1.00  0.00     0.000 C
ENDBRANCH  34  36
ENDBRANCH  33  34
ENDBRANCH  32  33
ENDBRANCH  29  32
ENDBRANCH   7  29
TORSDOF 1
ENDMDL
MODEL 9
REMARK VINA RESULT:      -7.3      2.422      5.371
REMARK SMILES N#CC1CN(C(=O)[C@@H]2NC(=O)c3c[nH]c4ncc(nc34)[C@]3(CCNCC[C@]24CC4)CC3)C1
REMARK SMILES IDX 12 1 13 2 14 3 15 4 16 5 17 6 18 7 19 8 20 9 10 11 9 12
REMARK SMILES IDX 11 13 8 15 6 16 1 17 2 18 3 19 4 20 32 21 5 22 7 23 27 24
REMARK SMILES IDX 29 25 28 26 26 27 21 29 31 30 30 31 22 32 23 33 24 34 25 36
REMARK H PARENT 14 10 9 14 24 35
REMARK Flexibility Score:   64.900
ROOT
ATOM      1  C   UNL     1      32.363  14.762  -2.974  1.00  0.00     0.085 A
ATOM      2  C   UNL     1      33.335  15.754  -2.975  1.00  0.00     0.100 A
ATOM      3  N   UNL     1      34.565  15.161  -2.821  1.00  0.00    -0.344 N
ATOM      4  C   UNL     1      34.411  13.807  -2.733  1.00  0.00     0.156 A
ATOM      5  N   UNL     1      35.398  12.898  -2.630  1.00  0.00    -0.235 NA
ATOM      6  C   UNL     1      34.884  11.637  -2.622  1.00  0.00     0.138 A
ATOM      7  C   UNL     1      33.520  11.300  -2.658  1.00  0.00     0.066 A
ATOM      8  N   UNL     1      32.566  12.266  -2.718  1.00  0.00    -0.246 NA
ATOM      9  C   UNL     1      33.052  13.534  -2.790  1.00  0.00     0.120 A
ATOM     10  H   UNL     1      35.460  15.630  -2.808  1.00  0.00     0.168 HD
ENDROOT
BRANCH   1  11
ATOM     11  C   UNL     1      30.934  14.968  -3.163  1.00  0.00     0.255 C
ATOM     12  N   UNL     1      30.620  15.689  -4.290  1.00  0.00    -0.340 N
ATOM     13  O   UNL     1      30.096  14.513  -2.394  1.00  0.00    -0.269 OA
ATOM     14  H   UNL     1      31.397  16.031  -4.849  1.00  0.00     0.164 HD
BRANCH  12  15
ATOM     15  C   UNL     1      29.306  16.251  -4.560  1.00  0.00     0.178 C
BRANCH  15  16
ATOM     16  C   UNL     1      29.225  17.762  -4.924  1.00  0.00     0.245 C
ATOM     17  N   UNL     1      34.035  20.656  -5.465  1.00  0.00    -0.198 NA
ATOM     18  C   UNL     1      33.097  20.077  -5.826  1.00  0.00     0.069 C
ATOM     19  C   UNL     1      31.938  19.345  -6.274  1.00  0.00     0.131 C
ATOM     20  C   UNL     1      31.736  17.968  -5.615  1.00  0.00     0.140 C
ATOM     21  C   UNL     1      30.601  19.771  -5.653  1.00  0.00     0.140 C
ATOM     22  N   UNL     1      30.360  18.359  -5.410  1.00  0.00    -0.338 N
ATOM     23  O   UNL     1      28.272  18.480  -4.606  1.00  0.00    -0.272 OA
ENDBRANCH  15  16
BRANCH  15  24
ATOM     24  C   UNL     1      28.463  15.225  -5.367  1.00  0.00     0.001 C
ATOM     25  C   UNL     1      27.290  15.716  -6.215  1.00  0.00     0.010 C
ATOM     26  C   UNL     1      27.016  14.900  -4.999  1.00  0.00     0.010 C
BRANCH  24  27
ATOM     27  C   UNL     1      29.293  14.055  -5.916  1.00  0.00     0.025 C
ATOM     28  G   UNL     1      28.951  12.698  -5.274  1.00  0.00     0.000 C
ENDBRANCH  24  27
ENDBRANCH  15  24
ENDBRANCH  12  15
ENDBRANCH   1  11
BRANCH   7  29
ATOM     29  C   UNL     1      33.042   9.849  -2.723  1.00  0.00     0.015 C
ATOM     30  C   UNL     1      33.075   9.032  -1.437  1.00  0.00     0.014 C
ATOM     31  C   UNL     1      34.035   8.708  -2.535  1.00  0.00     0.014 C
BRANCH  29  32
ATOM     32  C   UNL     1      31.878   9.636  -3.687  1.00  0.00     0.029 C
BRANCH  32  33
ATOM     33  C   UNL     1      31.237   8.245  -3.550  1.00  0.00     0.082 C
BRANCH  33  34
ATOM     34  N   UNL     1      30.516   7.871  -4.772  1.00  0.00    -0.317 NA
ATOM     35  H   UNL     1      29.766   7.218  -4.544  1.00  0.00     0.122 HD
BRANCH  34  36
ATOM     36  C   UNL     1      29.945   9.050  -5.441  1.00  0.00     0.081 C
ATOM     37  G   UNL     1      29.033   8.662  -6.620  1.00  0.00     0.000 C
ENDBRANCH  34  36
ENDBRANCH  33  34
ENDBRANCH  32  33
ENDBRANCH  29  32
ENDBRANCH   7  29
TORSDOF 1
ENDMDL
