MODEL 1
REMARK VINA RESULT:      -8.2      0.000      0.000
REMARK SMILES N#C[C@]12CCCNCC[C@]3(CC3)c3cnc4[nH]cc(c4n3)C(=O)N[C@H](C3CC3)C(=O)N(C1)C2
REMARK SMILES IDX 13 1 14 2 15 3 16 4 17 5 18 6 19 7 20 8 21 9 22 11 24 12
REMARK SMILES IDX 23 13 25 15 29 16 30 17 31 18 1 19 2 20 3 21 32 22 33 23
REMARK SMILES IDX 4 24 26 26 27 27 28 28 10 29 12 30 11 31 9 32 8 33 7 34 6 36
REMARK SMILES IDX 5 37
REMARK H PARENT 17 10 24 14 7 35
REMARK Flexibility Score:  115.900
ROOT
ATOM      1  C   UNL     1      33.415  11.310  -2.724  1.00  0.00     0.066 A
ATOM      2  C   UNL     1      34.741  11.647  -2.398  1.00  0.00     0.138 A
ATOM      3  N   UNL     1      35.270  12.894  -2.408  1.00  0.00    -0.235 NA
ATOM      4  C   UNL     1      34.340  13.795  -2.774  1.00  0.00     0.156 A
ATOM      5  N   UNL     1      34.545  15.139  -2.886  1.00  0.00    -0.344 N
ATOM      6  C   UNL     1      33.376  15.746  -3.262  1.00  0.00     0.100 A
ATOM      7  C   UNL     1      32.390  14.774  -3.397  1.00  0.00     0.085 A
ATOM      8  C   UNL     1      33.013  13.531  -3.096  1.00  0.00     0.120 A
ATOM      9  N   UNL     1      32.508  12.263  -3.081  1.00  0.00    -0.246 NA
ATOM     10  H   UNL     1      35.429  15.594  -2.709  1.00  0.00     0.168 HD
ENDROOT
BRANCH   7  11
ATOM     11  C   UNL     1      31.009  15.060  -3.755  1.00  0.00     0.255 C
ATOM     12  N   UNL     1      30.839  16.119  -4.613  1.00  0.00    -0.340 N
ATOM     13  O   UNL     1      30.081  14.373  -3.339  1.00  0.00    -0.269 OA
ATOM     14  H   UNL     1      31.658  16.649  -4.895  1.00  0.00     0.164 HD
BRANCH  12  15
ATOM     15  C   UNL     1      29.534  16.468  -5.145  1.00  0.00     0.175 C
BRANCH  15  16
ATOM     16  C   UNL     1      29.305  17.991  -5.037  1.00  0.00     0.245 C
ATOM     17  O   UNL     1      28.178  18.456  -4.840  1.00  0.00    -0.272 OA
BRANCH  16  18
ATOM     18  N   UNL     1      30.387  18.824  -5.102  1.00  0.00    -0.338 N
ATOM     19  N   UNL     1      34.280  19.444  -6.420  1.00  0.00    -0.198 NA
ATOM     20  C   UNL     1      33.266  19.744  -5.943  1.00  0.00     0.073 C
ATOM     21  C   UNL     1      31.993  20.124  -5.338  1.00  0.00     0.092 C
ATOM     22  C   UNL     1      30.783  19.687  -6.200  1.00  0.00     0.143 C
ATOM     23  C   UNL     1      31.532  19.098  -4.267  1.00  0.00     0.143 C
BRANCH  21  24
ATOM     24  C   UNL     1      32.066  21.597  -4.902  1.00  0.00     0.027 C
ATOM     25  G   UNL     1      33.440  22.258  -5.071  1.00  0.00     0.000 C
ENDBRANCH  21  24
ENDBRANCH  16  18
ENDBRANCH  15  16
BRANCH  15  26
ATOM     26  C   UNL     1      29.312  15.892  -6.529  1.00  0.00     0.021 C
ATOM     27  C   UNL     1      28.551  14.612  -6.813  1.00  0.00     0.006 C
ATOM     28  C   UNL     1      27.933  15.937  -7.149  1.00  0.00     0.006 C
ENDBRANCH  15  26
ENDBRANCH  12  15
ENDBRANCH   7  11
BRANCH   1  29
ATOM     29  C   UNL     1      32.980   9.839  -2.719  1.00  0.00     0.015 C
ATOM     30  C   UNL     1      32.907   9.126  -1.375  1.00  0.00     0.014 C
ATOM     31  C   UNL     1      34.034   8.813  -2.314  1.00  0.00     0.014 C
BRANCH  29  32
ATOM     32  C   UNL     1      32.014   9.515  -3.859  1.00  0.00     0.029 C
BRANCH  32  33
ATOM     33  C   UNL     1      30.502   9.596  -3.608  1.00  0.00     0.082 C
BRANCH  33  34
ATOM     34  N   UNL     1      29.781  10.670  -4.297  1.00  0.00    -0.317 NA
ATOM     35  H   UNL     1      29.453  11.332  -3.590  1.00  0.00     0.122 HD
BRANCH  34  36
ATOM     36  C   UNL     1      28.629  10.205  -5.070  1.00  0.00     0.081 C
BRANCH  36  37
ATOM     37  C   UNL     1      29.060   9.143  -6.090  1.00  0.00     0.017 C
ATOM     38  G   UNL     1      27.915   8.757  -7.035  1.00  0.00     0.000 C
ENDBRANCH  36  37
ENDBRANCH  34  36
ENDBRANCH  33  34
ENDBRANCH  32  33
ENDBRANCH  29  32
ENDBRANCH   1  29
TORSDOF 1
ENDMDL
MODEL 2
REMARK VINA RESULT:      -8.2      3.058      4.952
REMARK SMILES N#C[C@]12CCCNCC[C@]3(CC3)c3cnc4[nH]cc(c4n3)C(=O)N[C@H](C3CC3)C(=O)N(C1)C2
REMARK SMILES IDX 13 1 14 2 15 3 16 4 17 5 18 6 19 7 20 8 21 9 22 11 24 12
REMARK SMILES IDX 23 13 25 15 29 16 30 17 31 18 1 19 2 20 3 21 32 22 33 23
REMARK SMILES IDX 4 24 26 26 27 27 28 28 10 29 12 30 11 31 9 32 8 33 7 34 6 36
REMARK SMILES IDX 5 37
REMARK H PARENT 17 10 24 14 7 35
REMARK Flexibility Score:  115.900
ROOT
ATOM      1  C   UNL     1      32.201   9.600  -3.328  1.00  0.00     0.066 A
ATOM      2  C   UNL     1      32.991   8.668  -2.632  1.00  0.00     0.138 A
ATOM      3  N   UNL     1      34.144   8.937  -1.973  1.00  0.00    -0.235 NA
ATOM      4  C   UNL     1      34.442  10.246  -2.066  1.00  0.00     0.156 A
ATOM      5  N   UNL     1      35.537  10.847  -1.517  1.00  0.00    -0.344 N
ATOM      6  C   UNL     1      35.508  12.187  -1.800  1.00  0.00     0.100 A
ATOM      7  C   UNL     1      34.370  12.462  -2.550  1.00  0.00     0.085 A
ATOM      8  C   UNL     1      33.700  11.220  -2.727  1.00  0.00     0.120 A
ATOM      9  N   UNL     1      32.544  10.918  -3.386  1.00  0.00    -0.246 NA
ATOM     10  H   UNL     1      36.242  10.359  -0.984  1.00  0.00     0.168 HD
ENDROOT
BRANCH   7  11
ATOM     11  C   UNL     1      33.997  13.793  -3.003  1.00  0.00     0.255 C
ATOM     12  N   UNL     1      32.726  13.897  -3.516  1.00  0.00    -0.340 N
ATOM     13  O   UNL     1      34.759  14.748  -2.894  1.00  0.00    -0.269 OA
ATOM     14  H   UNL     1      32.165  13.053  -3.590  1.00  0.00     0.164 HD
BRANCH  12  15
ATOM     15  C   UNL     1      32.167  15.174  -3.917  1.00  0.00     0.175 C
BRANCH  15  16
ATOM     16  C   UNL     1      31.722  15.122  -5.394  1.00  0.00     0.245 C
ATOM     17  O   UNL     1      32.526  15.314  -6.312  1.00  0.00    -0.272 OA
BRANCH  16  18
ATOM     18  N   UNL     1      30.425  14.797  -5.678  1.00  0.00    -0.338 N
ATOM     19  N   UNL     1      26.477  14.617  -4.392  1.00  0.00    -0.198 NA
ATOM     20  C   UNL     1      27.342  14.543  -5.162  1.00  0.00     0.073 C
ATOM     21  C   UNL     1      28.427  14.445  -6.133  1.00  0.00     0.092 C
ATOM     22  C   UNL     1      29.355  15.683  -6.099  1.00  0.00     0.143 C
ATOM     23  C   UNL     1      29.615  13.605  -5.589  1.00  0.00     0.143 C
BRANCH  21  24
ATOM     24  C   UNL     1      27.845  14.024  -7.494  1.00  0.00     0.027 C
ATOM     25  G   UNL     1      26.484  14.642  -7.838  1.00  0.00     0.000 C
ENDBRANCH  21  24
ENDBRANCH  16  18
ENDBRANCH  15  16
BRANCH  15  26
ATOM     26  C   UNL     1      31.100  15.654  -2.953  1.00  0.00     0.021 C
ATOM     27  C   UNL     1      30.162  14.742  -2.188  1.00  0.00     0.006 C
ATOM     28  C   UNL     1      31.278  15.436  -1.466  1.00  0.00     0.006 C
ENDBRANCH  15  26
ENDBRANCH  12  15
ENDBRANCH   7  11
BRANCH   1  29
ATOM     29  C   UNL     1      30.946   9.128  -4.073  1.00  0.00     0.015 C
ATOM     30  C   UNL     1      30.500   9.929  -5.289  1.00  0.00     0.014 C
ATOM     31  C   UNL     1      29.726  10.042  -4.010  1.00  0.00     0.014 C
BRANCH  29  32
ATOM     32  C   UNL     1      30.755   7.613  -3.990  1.00  0.00     0.029 C
BRANCH  32  33
ATOM     33  C   UNL     1      30.354   6.836  -5.251  1.00  0.00     0.082 C
BRANCH  33  34
ATOM     34  N   UNL     1      29.045   6.176  -5.226  1.00  0.00    -0.317 NA
ATOM     35  H   UNL     1      29.195   5.177  -5.377  1.00  0.00     0.122 HD
BRANCH  34  36
ATOM     36  C   UNL     1      28.117   6.670  -6.243  1.00  0.00     0.081 C
BRANCH  36  37
ATOM     37  C   UNL     1      27.341   7.886  -5.718  1.00  0.00     0.017 C
ATOM     38  G   UNL     1      27.124   8.942  -6.809  1.00  0.00     0.000 C
ENDBRANCH  36  37
ENDBRANCH  34  36
ENDBRANCH  33  34
ENDBRANCH  32  33
ENDBRANCH  29  32
ENDBRANCH   1  29
TORSDOF 1
ENDMDL
MODEL 3
REMARK VINA RESULT:      -7.9      1.240      1.325
REMARK SMILES N#C[C@]12CCCNCC[C@]3(CC3)c3cnc4[nH]cc(c4n3)C(=O)N[C@H](C3CC3)C(=O)N(C1)C2
REMARK SMILES IDX 13 1 14 2 15 3 16 4 17 5 18 6 19 7 20 8 21 9 22 11 24 12
REMARK SMILES IDX 23 13 25 15 29 16 30 17 31 18 1 19 2 20 3 21 32 22 33 23
REMARK SMILES IDX 4 24 26 26 27 27 28 28 10 29 12 30 11 31 9 32 8 33 7 34 6 36
REMARK SMILES IDX 5 37
REMARK H PARENT 17 10 24 14 7 35
REMARK Flexibility Score:  115.900
ROOT
ATOM      1  C   UNL     1      33.664  11.067  -2.539  1.00  0.00     0.066 A
ATOM      2  C   UNL     1      35.027  11.223  -2.229  1.00  0.00     0.138 A
ATOM      3  N   UNL     1      35.710  12.393  -2.213  1.00  0.00    -0.235 NA
ATOM      4  C   UNL     1      34.897  13.415  -2.532  1.00  0.00     0.156 A
ATOM      5  N   UNL     1      35.268  14.726  -2.609  1.00  0.00    -0.344 N
ATOM      6  C   UNL     1      34.180  15.487  -2.943  1.00  0.00     0.100 A
ATOM      7  C   UNL     1      33.077  14.653  -3.088  1.00  0.00     0.085 A
ATOM      8  C   UNL     1      33.541  13.332  -2.836  1.00  0.00     0.120 A
ATOM      9  N   UNL     1      32.880  12.139  -2.849  1.00  0.00    -0.246 NA
ATOM     10  H   UNL     1      36.206  15.059  -2.435  1.00  0.00     0.168 HD
ENDROOT
BRANCH   7  11
ATOM     11  C   UNL     1      31.738  15.123  -3.410  1.00  0.00     0.255 C
ATOM     12  N   UNL     1      31.449  15.180  -4.751  1.00  0.00    -0.340 N
ATOM     13  O   UNL     1      30.929  15.408  -2.533  1.00  0.00    -0.269 OA
ATOM     14  H   UNL     1      32.183  14.944  -5.414  1.00  0.00     0.164 HD
BRANCH  12  15
ATOM     15  C   UNL     1      30.126  15.529  -5.233  1.00  0.00     0.175 C
BRANCH  15  16
ATOM     16  C   UNL     1      30.205  16.759  -6.163  1.00  0.00     0.245 C
ATOM     17  O   UNL     1      29.655  16.762  -7.269  1.00  0.00    -0.272 OA
BRANCH  16  18
ATOM     18  N   UNL     1      30.846  17.880  -5.715  1.00  0.00    -0.338 N
ATOM     19  N   UNL     1      34.197  20.331  -5.899  1.00  0.00    -0.198 NA
ATOM     20  C   UNL     1      33.126  20.030  -5.573  1.00  0.00     0.073 C
ATOM     21  C   UNL     1      31.778  19.653  -5.157  1.00  0.00     0.092 C
ATOM     22  C   UNL     1      30.909  19.185  -6.349  1.00  0.00     0.143 C
ATOM     23  C   UNL     1      31.726  18.198  -4.616  1.00  0.00     0.143 C
BRANCH  21  24
ATOM     24  C   UNL     1      31.209  20.754  -4.245  1.00  0.00     0.027 C
ATOM     25  G   UNL     1      31.917  22.112  -4.345  1.00  0.00     0.000 C
ENDBRANCH  21  24
ENDBRANCH  16  18
ENDBRANCH  15  16
BRANCH  15  26
ATOM     26  C   UNL     1      29.403  14.336  -5.824  1.00  0.00     0.021 C
ATOM     27  C   UNL     1      28.854  13.178  -5.013  1.00  0.00     0.006 C
ATOM     28  C   UNL     1      27.912  14.180  -5.613  1.00  0.00     0.006 C
ENDBRANCH  15  26
ENDBRANCH  12  15
ENDBRANCH   7  11
BRANCH   1  29
ATOM     29  C   UNL     1      33.045   9.664  -2.569  1.00  0.00     0.015 C
ATOM     30  C   UNL     1      33.048   8.860  -1.276  1.00  0.00     0.014 C
ATOM     31  C   UNL     1      33.999   8.489  -2.374  1.00  0.00     0.014 C
BRANCH  29  32
ATOM     32  C   UNL     1      31.912   9.550  -3.589  1.00  0.00     0.029 C
BRANCH  32  33
ATOM     33  C   UNL     1      31.341   8.166  -3.926  1.00  0.00     0.082 C
BRANCH  33  34
ATOM     34  N   UNL     1      30.107   8.141  -4.717  1.00  0.00    -0.317 NA
ATOM     35  H   UNL     1      30.197   7.401  -5.416  1.00  0.00     0.122 HD
BRANCH  34  36
ATOM     36  C   UNL     1      29.823   9.401  -5.405  1.00  0.00     0.081 C
BRANCH  36  37
ATOM     37  C   UNL     1      28.875   9.166  -6.588  1.00  0.00     0.017 C
ATOM     38  G   UNL     1      27.550   9.923  -6.420  1.00  0.00     0.000 C
ENDBRANCH  36  37
ENDBRANCH  34  36
ENDBRANCH  33  34
ENDBRANCH  32  33
ENDBRANCH  29  32
ENDBRANCH   1  29
TORSDOF 1
ENDMDL
MODEL 4
REMARK VINA RESULT:      -7.9      3.426      6.240
REMARK SMILES N#C[C@]12CCCNCC[C@]3(CC3)c3cnc4[nH]cc(c4n3)C(=O)N[C@H](C3CC3)C(=O)N(C1)C2
REMARK SMILES IDX 13 1 14 2 15 3 16 4 17 5 18 6 19 7 20 8 21 9 22 11 24 12
REMARK SMILES IDX 23 13 25 15 29 16 30 17 31 18 1 19 2 20 3 21 32 22 33 23
REMARK SMILES IDX 4 24 26 26 27 27 28 28 10 29 12 30 11 31 9 32 8 33 7 34 6 36
REMARK SMILES IDX 5 37
REMARK H PARENT 17 10 24 14 7 35
REMARK Flexibility Score:  115.900
ROOT
ATOM      1  C   UNL     1      29.670   8.313  -5.696  1.00  0.00     0.066 A
ATOM      2  C   UNL     1      29.832   7.111  -4.986  1.00  0.00     0.138 A
ATOM      3  N   UNL     1      30.665   6.914  -3.935  1.00  0.00    -0.235 NA
ATOM      4  C   UNL     1      31.330   8.047  -3.645  1.00  0.00     0.156 A
ATOM      5  N   UNL     1      32.247   8.190  -2.645  1.00  0.00    -0.344 N
ATOM      6  C   UNL     1      32.707   9.480  -2.633  1.00  0.00     0.100 A
ATOM      7  C   UNL     1      32.077  10.191  -3.649  1.00  0.00     0.085 A
ATOM      8  C   UNL     1      31.208   9.269  -4.299  1.00  0.00     0.120 A
ATOM      9  N   UNL     1      30.364   9.437  -5.358  1.00  0.00    -0.246 NA
ATOM     10  H   UNL     1      32.522   7.447  -2.019  1.00  0.00     0.168 HD
ENDROOT
BRANCH   7  11
ATOM     11  C   UNL     1      32.298  11.604  -3.913  1.00  0.00     0.255 C
ATOM     12  N   UNL     1      31.168  12.385  -3.879  1.00  0.00    -0.340 N
ATOM     13  O   UNL     1      33.422  12.053  -4.112  1.00  0.00    -0.269 OA
ATOM     14  H   UNL     1      30.272  11.931  -3.727  1.00  0.00     0.164 HD
BRANCH  12  15
ATOM     15  C   UNL     1      31.233  13.828  -4.021  1.00  0.00     0.175 C
BRANCH  15  16
ATOM     16  C   UNL     1      30.808  14.244  -5.446  1.00  0.00     0.245 C
ATOM     17  O   UNL     1      31.646  14.561  -6.296  1.00  0.00    -0.272 OA
BRANCH  16  18
ATOM     18  N   UNL     1      29.482  14.196  -5.775  1.00  0.00    -0.338 N
ATOM     19  N   UNL     1      25.532  14.615  -4.552  1.00  0.00    -0.198 NA
ATOM     20  C   UNL     1      26.391  14.464  -5.318  1.00  0.00     0.073 C
ATOM     21  C   UNL     1      27.468  14.270  -6.284  1.00  0.00     0.092 C
ATOM     22  C   UNL     1      28.605  15.305  -6.106  1.00  0.00     0.143 C
ATOM     23  C   UNL     1      28.466  13.172  -5.824  1.00  0.00     0.143 C
BRANCH  21  24
ATOM     24  C   UNL     1      26.858  14.111  -7.687  1.00  0.00     0.027 C
ATOM     25  G   UNL     1      25.820  12.990  -7.823  1.00  0.00     0.000 C
ENDBRANCH  21  24
ENDBRANCH  16  18
ENDBRANCH  15  16
BRANCH  15  26
ATOM     26  C   UNL     1      30.493  14.541  -2.907  1.00  0.00     0.021 C
ATOM     27  C   UNL     1      31.161  15.174  -1.702  1.00  0.00     0.006 C
ATOM     28  C   UNL     1      30.593  16.046  -2.783  1.00  0.00     0.006 C
ENDBRANCH  15  26
ENDBRANCH  12  15
ENDBRANCH   7  11
BRANCH   1  29
ATOM     29  C   UNL     1      28.725   8.363  -6.904  1.00  0.00     0.015 C
ATOM     30  C   UNL     1      28.511   7.076  -7.690  1.00  0.00     0.014 C
ATOM     31  C   UNL     1      29.357   8.164  -8.278  1.00  0.00     0.014 C
BRANCH  29  32
ATOM     32  C   UNL     1      27.614   9.399  -6.730  1.00  0.00     0.029 C
BRANCH  32  33
ATOM     33  C   UNL     1      27.064   9.680  -5.325  1.00  0.00     0.082 C
BRANCH  33  34
ATOM     34  N   UNL     1      26.287   8.606  -4.699  1.00  0.00    -0.317 NA
ATOM     35  H   UNL     1      26.927   8.043  -4.135  1.00  0.00     0.122 HD
BRANCH  34  36
ATOM     36  C   UNL     1      25.615   7.729  -5.658  1.00  0.00     0.081 C
BRANCH  36  37
ATOM     37  C   UNL     1      25.518   6.301  -5.105  1.00  0.00     0.017 C
ATOM     38  G   UNL     1      25.657   5.247  -6.211  1.00  0.00     0.000 C
ENDBRANCH  36  37
ENDBRANCH  34  36
ENDBRANCH  33  34
ENDBRANCH  32  33
ENDBRANCH  29  32
ENDBRANCH   1  29
TORSDOF 1
ENDMDL
MODEL 5
REMARK VINA RESULT:      -7.9      2.816      4.575
REMARK SMILES N#C[C@]12CCCNCC[C@]3(CC3)c3cnc4[nH]cc(c4n3)C(=O)N[C@H](C3CC3)C(=O)N(C1)C2
REMARK SMILES IDX 13 1 14 2 15 3 16 4 17 5 18 6 19 7 20 8 21 9 22 11 24 12
REMARK SMILES IDX 23 13 25 15 29 16 30 17 31 18 1 19 2 20 3 21 32 22 33 23
REMARK SMILES IDX 4 24 26 26 27 27 28 28 10 29 12 30 11 31 9 32 8 33 7 34 6 36
REMARK SMILES IDX 5 37
REMARK H PARENT 17 10 24 14 7 35
REMARK Flexibility Score:  115.900
ROOT
ATOM      1  C   UNL     1      32.261   9.392  -3.282  1.00  0.00     0.066 A
ATOM      2  C   UNL     1      33.079   8.496  -2.571  1.00  0.00     0.138 A
ATOM      3  N   UNL     1      34.221   8.811  -1.913  1.00  0.00    -0.235 NA
ATOM      4  C   UNL     1      34.477  10.127  -2.023  1.00  0.00     0.156 A
ATOM      5  N   UNL     1      35.550  10.770  -1.479  1.00  0.00    -0.344 N
ATOM      6  C   UNL     1      35.478  12.105  -1.779  1.00  0.00     0.100 A
ATOM      7  C   UNL     1      34.334  12.334  -2.536  1.00  0.00     0.085 A
ATOM      8  C   UNL     1      33.705  11.068  -2.699  1.00  0.00     0.120 A
ATOM      9  N   UNL     1      32.561  10.720  -3.356  1.00  0.00    -0.246 NA
ATOM     10  H   UNL     1      36.269  10.313  -0.937  1.00  0.00     0.168 HD
ENDROOT
BRANCH   7  11
ATOM     11  C   UNL     1      33.919  13.646  -3.007  1.00  0.00     0.255 C
ATOM     12  N   UNL     1      32.697  13.678  -3.635  1.00  0.00    -0.340 N
ATOM     13  O   UNL     1      34.606  14.645  -2.818  1.00  0.00    -0.269 OA
ATOM     14  H   UNL     1      32.200  12.802  -3.768  1.00  0.00     0.164 HD
BRANCH  12  15
ATOM     15  C   UNL     1      32.096  14.924  -4.071  1.00  0.00     0.175 C
BRANCH  15  16
ATOM     16  C   UNL     1      31.730  14.844  -5.569  1.00  0.00     0.245 C
ATOM     17  O   UNL     1      32.468  14.272  -6.378  1.00  0.00    -0.272 OA
BRANCH  16  18
ATOM     18  N   UNL     1      30.536  15.366  -5.982  1.00  0.00    -0.338 N
ATOM     19  N   UNL     1      27.788  15.867  -9.060  1.00  0.00    -0.198 NA
ATOM     20  C   UNL     1      28.176  15.935  -7.968  1.00  0.00     0.073 C
ATOM     21  C   UNL     1      28.662  16.026  -6.595  1.00  0.00     0.092 C
ATOM     22  C   UNL     1      29.258  14.687  -6.097  1.00  0.00     0.143 C
ATOM     23  C   UNL     1      30.093  16.627  -6.526  1.00  0.00     0.143 C
BRANCH  21  24
ATOM     24  C   UNL     1      27.585  16.696  -5.726  1.00  0.00     0.027 C
ATOM     25  G   UNL     1      26.371  15.816  -5.400  1.00  0.00     0.000 C
ENDBRANCH  21  24
ENDBRANCH  16  18
ENDBRANCH  15  16
BRANCH  15  26
ATOM     26  C   UNL     1      30.959  15.354  -3.166  1.00  0.00     0.021 C
ATOM     27  C   UNL     1      31.129  15.780  -1.721  1.00  0.00     0.006 C
ATOM     28  C   UNL     1      30.824  16.808  -2.769  1.00  0.00     0.006 C
ENDBRANCH  15  26
ENDBRANCH  12  15
ENDBRANCH   7  11
BRANCH   1  29
ATOM     29  C   UNL     1      31.024   8.871  -4.025  1.00  0.00     0.015 C
ATOM     30  C   UNL     1      30.558   9.640  -5.253  1.00  0.00     0.014 C
ATOM     31  C   UNL     1      29.776   9.746  -3.978  1.00  0.00     0.014 C
BRANCH  29  32
ATOM     32  C   UNL     1      30.881   7.352  -3.919  1.00  0.00     0.029 C
BRANCH  32  33
ATOM     33  C   UNL     1      30.324   6.566  -5.114  1.00  0.00     0.082 C
BRANCH  33  34
ATOM     34  N   UNL     1      28.892   6.255  -5.083  1.00  0.00    -0.317 NA
ATOM     35  H   UNL     1      28.790   5.239  -5.111  1.00  0.00     0.122 HD
BRANCH  34  36
ATOM     36  C   UNL     1      28.140   6.831  -6.198  1.00  0.00     0.081 C
BRANCH  36  37
ATOM     37  C   UNL     1      28.902   6.641  -7.516  1.00  0.00     0.017 C
ATOM     38  G   UNL     1      29.100   7.968  -8.261  1.00  0.00     0.000 C
ENDBRANCH  36  37
ENDBRANCH  34  36
ENDBRANCH  33  34
ENDBRANCH  32  33
ENDBRANCH  29  32
ENDBRANCH   1  29
TORSDOF 1
ENDMDL
MODEL 6
REMARK VINA RESULT:      -7.9      2.353      4.961
REMARK SMILES N#C[C@]12CCCNCC[C@]3(CC3)c3cnc4[nH]cc(c4n3)C(=O)N[C@H](C3CC3)C(=O)N(C1)C2
REMARK SMILES IDX 13 1 14 2 15 3 16 4 17 5 18 6 19 7 20 8 21 9 22 11 24 12
REMARK SMILES IDX 23 13 25 15 29 16 30 17 31 18 1 19 2 20 3 21 32 22 33 23
REMARK SMILES IDX 4 24 26 26 27 27 28 28 10 29 12 30 11 31 9 32 8 33 7 34 6 36
REMARK SMILES IDX 5 37
REMARK H PARENT 17 10 24 14 7 35
REMARK Flexibility Score:  115.900
ROOT
ATOM      1  C   UNL     1      31.223   9.944  -3.958  1.00  0.00     0.066 A
ATOM      2  C   UNL     1      32.077   9.058  -3.279  1.00  0.00     0.138 A
ATOM      3  N   UNL     1      33.245   9.385  -2.675  1.00  0.00    -0.235 NA
ATOM      4  C   UNL     1      33.488  10.701  -2.806  1.00  0.00     0.156 A
ATOM      5  N   UNL     1      34.581  11.355  -2.316  1.00  0.00    -0.344 N
ATOM      6  C   UNL     1      34.488  12.686  -2.623  1.00  0.00     0.100 A
ATOM      7  C   UNL     1      33.310  12.903  -3.329  1.00  0.00     0.085 A
ATOM      8  C   UNL     1      32.681  11.632  -3.454  1.00  0.00     0.120 A
ATOM      9  N   UNL     1      31.511  11.273  -4.056  1.00  0.00    -0.246 NA
ATOM     10  H   UNL     1      35.326  10.906  -1.804  1.00  0.00     0.168 HD
ENDROOT
BRANCH   7  11
ATOM     11  C   UNL     1      32.866  14.209  -3.791  1.00  0.00     0.255 C
ATOM     12  N   UNL     1      31.963  14.183  -4.826  1.00  0.00    -0.340 N
ATOM     13  O   UNL     1      33.253  15.245  -3.261  1.00  0.00    -0.269 OA
ATOM     14  H   UNL     1      31.708  13.283  -5.222  1.00  0.00     0.164 HD
BRANCH  12  15
ATOM     15  C   UNL     1      31.347  15.395  -5.332  1.00  0.00     0.175 C
BRANCH  15  16
ATOM     16  C   UNL     1      30.096  15.747  -4.498  1.00  0.00     0.245 C
ATOM     17  O   UNL     1      30.194  16.325  -3.411  1.00  0.00    -0.272 OA
BRANCH  16  18
ATOM     18  N   UNL     1      28.863  15.462  -5.013  1.00  0.00    -0.338 N
ATOM     19  N   UNL     1      24.897  14.444  -4.296  1.00  0.00    -0.198 NA
ATOM     20  C   UNL     1      25.805  14.765  -4.943  1.00  0.00     0.073 C
ATOM     21  C   UNL     1      26.946  15.165  -5.761  1.00  0.00     0.092 C
ATOM     22  C   UNL     1      27.722  16.352  -5.140  1.00  0.00     0.143 C
ATOM     23  C   UNL     1      28.191  14.277  -5.491  1.00  0.00     0.143 C
BRANCH  21  24
ATOM     24  C   UNL     1      26.490  15.296  -7.225  1.00  0.00     0.027 C
ATOM     25  G   UNL     1      25.759  14.072  -7.791  1.00  0.00     0.000 C
ENDBRANCH  21  24
ENDBRANCH  16  18
ENDBRANCH  15  16
BRANCH  15  26
ATOM     26  C   UNL     1      32.348  16.523  -5.477  1.00  0.00     0.021 C
ATOM     27  C   UNL     1      32.882  17.032  -6.802  1.00  0.00     0.006 C
ATOM     28  C   UNL     1      31.900  17.860  -6.027  1.00  0.00     0.006 C
ENDBRANCH  15  26
ENDBRANCH  12  15
ENDBRANCH   7  11
BRANCH   1  29
ATOM     29  C   UNL     1      29.957   9.410  -4.640  1.00  0.00     0.015 C
ATOM     30  C   UNL     1      29.798   7.900  -4.758  1.00  0.00     0.014 C
ATOM     31  C   UNL     1      30.146   8.699  -5.977  1.00  0.00     0.014 C
BRANCH  29  32
ATOM     32  C   UNL     1      28.756  10.336  -4.445  1.00  0.00     0.029 C
BRANCH  32  33
ATOM     33  C   UNL     1      27.513  10.150  -5.326  1.00  0.00     0.082 C
BRANCH  33  34
ATOM     34  N   UNL     1      26.483   9.238  -4.821  1.00  0.00    -0.317 NA
ATOM     35  H   UNL     1      26.798   8.877  -3.917  1.00  0.00     0.122 HD
BRANCH  34  36
ATOM     36  C   UNL     1      26.213   8.106  -5.707  1.00  0.00     0.081 C
BRANCH  36  37
ATOM     37  C   UNL     1      25.415   7.023  -4.969  1.00  0.00     0.017 C
ATOM     38  G   UNL     1      26.273   5.787  -4.663  1.00  0.00     0.000 C
ENDBRANCH  36  37
ENDBRANCH  34  36
ENDBRANCH  33  34
ENDBRANCH  32  33
ENDBRANCH  29  32
ENDBRANCH   1  29
TORSDOF 1
ENDMDL
MODEL 7
REMARK VINA RESULT:      -7.9      2.462      6.930
REMARK SMILES N#C[C@]12CCCNCC[C@]3(CC3)c3cnc4[nH]cc(c4n3)C(=O)N[C@H](C3CC3)C(=O)N(C1)C2
REMARK SMILES IDX 13 1 14 2 15 3 16 4 17 5 18 6 19 7 20 8 21 9 22 11 24 12
REMARK SMILES IDX 23 13 25 15 29 16 30 17 31 18 1 19 2 20 3 21 32 22 33 23
REMARK SMILES IDX 4 24 26 26 27 27 28 28 10 29 12 30 11 31 9 32 8 33 7 34 6 36
REMARK SMILES IDX 5 37
REMARK H PARENT 17 10 24 14 7 35
REMARK Flexibility Score:  115.900
ROOT
ATOM      1  C   UNL     1      32.642  12.957  -3.636  1.00  0.00     0.066 A
ATOM      2  C   UNL     1      33.863  12.914  -2.939  1.00  0.00     0.138 A
ATOM      3  N   UNL     1      34.462  11.800  -2.453  1.00  0.00    -0.235 NA
ATOM      4  C   UNL     1      33.725  10.710  -2.736  1.00  0.00     0.156 A
ATOM      5  N   UNL     1      34.044   9.430  -2.387  1.00  0.00    -0.344 N
ATOM      6  C   UNL     1      33.077   8.579  -2.853  1.00  0.00     0.100 A
ATOM      7  C   UNL     1      32.107   9.323  -3.517  1.00  0.00     0.085 A
ATOM      8  C   UNL     1      32.520  10.682  -3.430  1.00  0.00     0.120 A
ATOM      9  N   UNL     1      31.937  11.821  -3.904  1.00  0.00    -0.246 NA
ATOM     10  H   UNL     1      34.873   9.174  -1.872  1.00  0.00     0.168 HD
ENDROOT
BRANCH   7  11
ATOM     11  C   UNL     1      30.944   8.745  -4.170  1.00  0.00     0.255 C
ATOM     12  N   UNL     1      30.045   9.656  -4.670  1.00  0.00    -0.340 N
ATOM     13  O   UNL     1      30.808   7.531  -4.288  1.00  0.00    -0.269 OA
ATOM     14  H   UNL     1      30.222  10.644  -4.513  1.00  0.00     0.164 HD
BRANCH  12  15
ATOM     15  C   UNL     1      28.885   9.242  -5.438  1.00  0.00     0.175 C
BRANCH  15  16
ATOM     16  C   UNL     1      27.659  10.097  -5.053  1.00  0.00     0.245 C
ATOM     17  O   UNL     1      26.681   9.596  -4.488  1.00  0.00    -0.272 OA
BRANCH  16  18
ATOM     18  N   UNL     1      27.695  11.442  -5.292  1.00  0.00    -0.338 N
ATOM     19  N   UNL     1      28.209  14.518  -8.040  1.00  0.00    -0.198 NA
ATOM     20  C   UNL     1      27.945  14.055  -7.010  1.00  0.00     0.073 C
ATOM     21  C   UNL     1      27.615  13.478  -5.710  1.00  0.00     0.092 C
ATOM     22  C   UNL     1      26.641  12.281  -5.834  1.00  0.00     0.143 C
ATOM     23  C   UNL     1      28.701  12.476  -5.231  1.00  0.00     0.143 C
BRANCH  21  24
ATOM     24  C   UNL     1      27.238  14.610  -4.740  1.00  0.00     0.027 C
ATOM     25  G   UNL     1      27.923  15.956  -5.013  1.00  0.00     0.000 C
ENDBRANCH  21  24
ENDBRANCH  16  18
ENDBRANCH  15  16
BRANCH  15  26
ATOM     26  C   UNL     1      29.177   9.189  -6.924  1.00  0.00     0.021 C
ATOM     27  C   UNL     1      29.182   7.919  -7.752  1.00  0.00     0.006 C
ATOM     28  C   UNL     1      28.057   8.900  -7.900  1.00  0.00     0.006 C
ENDBRANCH  15  26
ENDBRANCH  12  15
ENDBRANCH   7  11
BRANCH   1  29
ATOM     29  C   UNL     1      32.064  14.308  -4.076  1.00  0.00     0.015 C
ATOM     30  C   UNL     1      32.249  15.496  -3.142  1.00  0.00     0.014 C
ATOM     31  C   UNL     1      30.899  14.854  -3.256  1.00  0.00     0.014 C
BRANCH  29  32
ATOM     32  C   UNL     1      32.054  14.469  -5.596  1.00  0.00     0.029 C
BRANCH  32  33
ATOM     33  C   UNL     1      31.136  15.522  -6.234  1.00  0.00     0.082 C
BRANCH  33  34
ATOM     34  N   UNL     1      31.780  16.751  -6.708  1.00  0.00    -0.317 NA
ATOM     35  H   UNL     1      32.789  16.647  -6.579  1.00  0.00     0.122 HD
BRANCH  34  36
ATOM     36  C   UNL     1      31.340  17.955  -6.003  1.00  0.00     0.081 C
BRANCH  36  37
ATOM     37  C   UNL     1      32.504  18.572  -5.216  1.00  0.00     0.017 C
ATOM     38  G   UNL     1      33.183  19.708  -5.993  1.00  0.00     0.000 C
ENDBRANCH  36  37
ENDBRANCH  34  36
ENDBRANCH  33  34
ENDBRANCH  32  33
ENDBRANCH  29  32
ENDBRANCH   1  29
TORSDOF 1
ENDMDL
MODEL 8
REMARK VINA RESULT:      -7.8      1.217      1.596
REMARK SMILES N#C[C@]12CCCNCC[C@]3(CC3)c3cnc4[nH]cc(c4n3)C(=O)N[C@H](C3CC3)C(=O)N(C1)C2
REMARK SMILES IDX 13 1 14 2 15 3 16 4 17 5 18 6 19 7 20 8 21 9 22 11 24 12
REMARK SMILES IDX 23 13 25 15 29 16 30 17 31 18 1 19 2 20 3 21 32 22 33 23
REMARK SMILES IDX 4 24 26 26 27 27 28 28 10 29 12 30 11 31 9 32 8 33 7 34 6 36
REMARK SMILES IDX 5 37
REMARK H PARENT 17 10 24 14 7 35
REMARK Flexibility Score:  115.900
ROOT
ATOM      1  C   UNL     1      33.816  11.259  -2.401  1.00  0.00     0.066 A
ATOM      2  C   UNL     1      35.160  11.618  -2.195  1.00  0.00     0.138 A
ATOM      3  N   UNL     1      35.675  12.867  -2.298  1.00  0.00    -0.235 NA
ATOM      4  C   UNL     1      34.710  13.746  -2.625  1.00  0.00     0.156 A
ATOM      5  N   UNL     1      34.892  15.085  -2.809  1.00  0.00    -0.344 N
ATOM      6  C   UNL     1      33.692  15.668  -3.116  1.00  0.00     0.100 A
ATOM      7  C   UNL     1      32.708  14.686  -3.133  1.00  0.00     0.085 A
ATOM      8  C   UNL     1      33.364  13.460  -2.831  1.00  0.00     0.120 A
ATOM      9  N   UNL     1      32.875  12.191  -2.724  1.00  0.00    -0.246 NA
ATOM     10  H   UNL     1      35.783  15.553  -2.720  1.00  0.00     0.168 HD
ENDROOT
BRANCH   7  11
ATOM     11  C   UNL     1      31.301  14.948  -3.392  1.00  0.00     0.255 C
ATOM     12  N   UNL     1      31.043  15.656  -4.540  1.00  0.00    -0.340 N
ATOM     13  O   UNL     1      30.420  14.528  -2.648  1.00  0.00    -0.269 OA
ATOM     14  H   UNL     1      31.831  15.984  -5.092  1.00  0.00     0.164 HD
BRANCH  12  15
ATOM     15  C   UNL     1      29.688  15.911  -4.993  1.00  0.00     0.175 C
BRANCH  15  16
ATOM     16  C   UNL     1      29.345  17.408  -4.835  1.00  0.00     0.245 C
ATOM     17  O   UNL     1      28.268  17.770  -4.351  1.00  0.00    -0.272 OA
BRANCH  16  18
ATOM     18  N   UNL     1      30.285  18.337  -5.184  1.00  0.00    -0.338 N
ATOM     19  N   UNL     1      31.826  22.160  -4.653  1.00  0.00    -0.198 NA
ATOM     20  C   UNL     1      31.808  21.077  -5.067  1.00  0.00     0.073 C
ATOM     21  C   UNL     1      31.787  19.715  -5.593  1.00  0.00     0.092 C
ATOM     22  C   UNL     1      31.516  18.666  -4.488  1.00  0.00     0.143 C
ATOM     23  C   UNL     1      30.405  19.352  -6.203  1.00  0.00     0.143 C
BRANCH  21  24
ATOM     24  C   UNL     1      33.019  19.507  -6.491  1.00  0.00     0.027 C
ATOM     25  G   UNL     1      34.117  20.568  -6.345  1.00  0.00     0.000 C
ENDBRANCH  21  24
ENDBRANCH  16  18
ENDBRANCH  15  16
BRANCH  15  26
ATOM     26  C   UNL     1      29.436  15.348  -6.377  1.00  0.00     0.021 C
ATOM     27  C   UNL     1      28.184  14.595  -6.782  1.00  0.00     0.006 C
ATOM     28  C   UNL     1      28.404  15.995  -7.275  1.00  0.00     0.006 C
ENDBRANCH  15  26
ENDBRANCH  12  15
ENDBRANCH   7  11
BRANCH   1  29
ATOM     29  C   UNL     1      33.397   9.787  -2.302  1.00  0.00     0.015 C
ATOM     30  C   UNL     1      34.156   8.898  -1.326  1.00  0.00     0.014 C
ATOM     31  C   UNL     1      34.402   8.753  -2.798  1.00  0.00     0.014 C
BRANCH  29  32
ATOM     32  C   UNL     1      31.908   9.586  -2.588  1.00  0.00     0.029 C
BRANCH  32  33
ATOM     33  C   UNL     1      31.484   8.760  -3.810  1.00  0.00     0.082 C
BRANCH  33  34
ATOM     34  N   UNL     1      30.704   9.461  -4.835  1.00  0.00    -0.317 NA
ATOM     35  H   UNL     1      31.296  10.191  -5.236  1.00  0.00     0.122 HD
BRANCH  34  36
ATOM     36  C   UNL     1      29.481  10.079  -4.323  1.00  0.00     0.081 C
BRANCH  36  37
ATOM     37  C   UNL     1      29.429  11.564  -4.705  1.00  0.00     0.017 C
ATOM     38  G   UNL     1      30.785  12.075  -5.209  1.00  0.00     0.000 C
ENDBRANCH  36  37
ENDBRANCH  34  36
ENDBRANCH  33  34
ENDBRANCH  32  33
ENDBRANCH  29  32
ENDBRANCH   1  29
TORSDOF 1
ENDMDL
MODEL 9
REMARK VINA RESULT:      -7.8      1.915      3.066
REMARK SMILES N#C[C@]12CCCNCC[C@]3(CC3)c3cnc4[nH]cc(c4n3)C(=O)N[C@H](C3CC3)C(=O)N(C1)C2
REMARK SMILES IDX 13 1 14 2 15 3 16 4 17 5 18 6 19 7 20 8 21 9 22 11 24 12
REMARK SMILES IDX 23 13 25 15 29 16 30 17 31 18 1 19 2 20 3 21 32 22 33 23
REMARK SMILES IDX 4 24 26 26 27 27 28 28 10 29 12 30 11 31 9 32 8 33 7 34 6 36
REMARK SMILES IDX 5 37
REMARK H PARENT 17 10 24 14 7 35
REMARK Flexibility Score:  115.900
ROOT
ATOM      1  C   UNL     1      32.502   9.835  -3.245  1.00  0.00     0.066 A
ATOM      2  C   UNL     1      33.450   8.990  -2.641  1.00  0.00     0.138 A
ATOM      3  N   UNL     1      34.612   9.381  -2.066  1.00  0.00    -0.235 NA
ATOM      4  C   UNL     1      34.746  10.718  -2.143  1.00  0.00     0.156 A
ATOM      5  N   UNL     1      35.803  11.434  -1.662  1.00  0.00    -0.344 N
ATOM      6  C   UNL     1      35.594  12.766  -1.901  1.00  0.00     0.100 A
ATOM      7  C   UNL     1      34.375  12.920  -2.551  1.00  0.00     0.085 A
ATOM      8  C   UNL     1      33.843  11.609  -2.714  1.00  0.00     0.120 A
ATOM      9  N   UNL     1      32.681  11.186  -3.290  1.00  0.00    -0.246 NA
ATOM     10  H   UNL     1      36.602  11.023  -1.200  1.00  0.00     0.168 HD
ENDROOT
BRANCH   7  11
ATOM     11  C   UNL     1      33.812  14.205  -2.933  1.00  0.00     0.255 C
ATOM     12  N   UNL     1      32.498  14.168  -3.333  1.00  0.00    -0.340 N
ATOM     13  O   UNL     1      34.466  15.241  -2.863  1.00  0.00    -0.269 OA
ATOM     14  H   UNL     1      32.033  13.266  -3.382  1.00  0.00     0.164 HD
BRANCH  12  15
ATOM     15  C   UNL     1      31.762  15.378  -3.648  1.00  0.00     0.175 C
BRANCH  15  16
ATOM     16  C   UNL     1      32.146  15.886  -5.055  1.00  0.00     0.245 C
ATOM     17  O   UNL     1      32.451  15.099  -5.957  1.00  0.00    -0.272 OA
BRANCH  16  18
ATOM     18  N   UNL     1      32.083  17.227  -5.309  1.00  0.00    -0.338 N
ATOM     19  N   UNL     1      34.102  20.842  -5.671  1.00  0.00    -0.198 NA
ATOM     20  C   UNL     1      33.189  20.130  -5.742  1.00  0.00     0.073 C
ATOM     21  C   UNL     1      32.036  19.240  -5.830  1.00  0.00     0.092 C
ATOM     22  C   UNL     1      32.375  17.914  -6.554  1.00  0.00     0.143 C
ATOM     23  C   UNL     1      31.841  18.416  -4.527  1.00  0.00     0.143 C
BRANCH  21  24
ATOM     24  C   UNL     1      30.822  20.040  -6.334  1.00  0.00     0.027 C
ATOM     25  G   UNL     1      30.874  21.547  -6.053  1.00  0.00     0.000 C
ENDBRANCH  21  24
ENDBRANCH  16  18
ENDBRANCH  15  16
BRANCH  15  26
ATOM     26  C   UNL     1      30.273  15.213  -3.421  1.00  0.00     0.021 C
ATOM     27  C   UNL     1      29.247  15.069  -4.528  1.00  0.00     0.006 C
ATOM     28  C   UNL     1      29.615  13.877  -3.694  1.00  0.00     0.006 C
ENDBRANCH  15  26
ENDBRANCH  12  15
ENDBRANCH   7  11
BRANCH   1  29
ATOM     29  C   UNL     1      31.255   9.232  -3.905  1.00  0.00     0.015 C
ATOM     30  C   UNL     1      30.538   8.107  -3.170  1.00  0.00     0.014 C
ATOM     31  C   UNL     1      31.362   7.787  -4.381  1.00  0.00     0.014 C
BRANCH  29  32
ATOM     32  C   UNL     1      30.499  10.251  -4.759  1.00  0.00     0.029 C
BRANCH  32  33
ATOM     33  C   UNL     1      28.972  10.148  -4.874  1.00  0.00     0.082 C
BRANCH  33  34
ATOM     34  N   UNL     1      28.354  10.831  -6.014  1.00  0.00    -0.317 NA
ATOM     35  H   UNL     1      29.096  11.296  -6.542  1.00  0.00     0.122 HD
BRANCH  34  36
ATOM     36  C   UNL     1      27.356  11.830  -5.631  1.00  0.00     0.081 C
BRANCH  36  37
ATOM     37  C   UNL     1      27.027  12.744  -6.819  1.00  0.00     0.017 C
ATOM     38  G   UNL     1      26.196  13.961  -6.393  1.00  0.00     0.000 C
ENDBRANCH  36  37
ENDBRANCH  34  36
ENDBRANCH  33  34
ENDBRANCH  32  33
ENDBRANCH  29  32
ENDBRANCH   1  29
TORSDOF 1
ENDMDL
