MODEL 1
REMARK VINA RESULT:      -9.1      0.000      0.000
REMARK SMILES N#C[C@@H]1C[C@@H]2CCCC3(CC3)c3cnc4[nH]cc(c4n3)C(=O)N[C@H](C3CC3)C(=O)N2C1
REMARK SMILES IDX 24 1 28 2 29 3 30 4 1 5 2 6 3 7 4 8 31 9 5 10 6 11 7 12
REMARK SMILES IDX 23 14 21 15 22 16 18 18 17 19 19 20 16 21 20 22 15 23 12 24
REMARK SMILES IDX 14 25 13 26 9 28 10 29 11 30 8 31 25 33 26 34 27 35
REMARK H PARENT 23 17 16 27
REMARK Flexibility Score:   67.900
ROOT
ATOM      1  C   UNL     1      32.853  15.141  -3.368  1.00  0.00     0.175 C
ENDROOT
BRANCH   1   2
ATOM      2  C   UNL     1      32.463  14.605  -4.765  1.00  0.00     0.245 C
ATOM      3  O   UNL     1      32.581  13.405  -5.020  1.00  0.00    -0.272 OA
BRANCH   2   4
ATOM      4  N   UNL     1      32.137  15.550  -5.724  1.00  0.00    -0.337 N
ATOM      5  N   UNL     1      32.554  20.121  -5.240  1.00  0.00    -0.198 NA
ATOM      6  C   UNL     1      32.310  19.106  -5.748  1.00  0.00     0.067 C
ATOM      7  C   UNL     1      32.015  17.827  -6.393  1.00  0.00     0.114 C
ATOM      8  C   UNL     1      30.627  17.285  -6.018  1.00  0.00     0.045 C
ATOM      9  C   UNL     1      32.979  16.719  -5.944  1.00  0.00     0.138 C
ATOM     10  C   UNL     1      30.798  15.790  -6.267  1.00  0.00     0.086 C
BRANCH  10  11
ATOM     11  C   UNL     1      29.628  14.917  -5.800  1.00  0.00     0.025 C
BRANCH  11  12
ATOM     12  C   UNL     1      28.274  15.526  -6.215  1.00  0.00     0.003 C
ATOM     13  G   UNL     1      27.330  15.745  -5.027  1.00  0.00     0.000 C
ENDBRANCH  11  12
ENDBRANCH  10  11
ENDBRANCH   2   4
ENDBRANCH   1   2
BRANCH   1  14
ATOM     14  N   UNL     1      33.320  13.938  -2.703  1.00  0.00    -0.340 N
ATOM     15  C   UNL     1      34.632  13.618  -2.504  1.00  0.00     0.255 C
ATOM     16  O   UNL     1      35.560  14.394  -2.708  1.00  0.00    -0.269 OA
ATOM     17  H   UNL     1      32.615  13.231  -2.488  1.00  0.00     0.164 HD
BRANCH  15  18
ATOM     18  C   UNL     1      34.838  12.249  -2.053  1.00  0.00     0.085 A
ATOM     19  C   UNL     1      35.925  11.795  -1.316  1.00  0.00     0.100 A
ATOM     20  C   UNL     1      34.027  11.105  -2.311  1.00  0.00     0.120 A
ATOM     21  N   UNL     1      35.782  10.443  -1.114  1.00  0.00    -0.344 N
ATOM     22  N   UNL     1      32.869  10.988  -3.015  1.00  0.00    -0.246 NA
ATOM     23  C   UNL     1      34.646  10.007  -1.734  1.00  0.00     0.156 A
ATOM     24  C   UNL     1      32.392   9.723  -3.154  1.00  0.00     0.066 A
ATOM     25  N   UNL     1      34.213   8.735  -1.790  1.00  0.00    -0.235 NA
ATOM     26  C   UNL     1      33.071   8.657  -2.532  1.00  0.00     0.138 A
ATOM     27  H   UNL     1      36.422   9.840  -0.619  1.00  0.00     0.168 HD
BRANCH  24  28
ATOM     28  C   UNL     1      31.118   9.507  -4.019  1.00  0.00     0.014 C
ATOM     29  C   UNL     1      29.898  10.390  -3.788  1.00  0.00     0.014 C
ATOM     30  C   UNL     1      30.733  10.593  -5.018  1.00  0.00     0.014 C
BRANCH  28  31
ATOM     31  C   UNL     1      30.827   8.069  -4.469  1.00  0.00     0.013 C
ATOM     32  G   UNL     1      29.607   7.957  -5.392  1.00  0.00     0.000 C
ENDBRANCH  28  31
ENDBRANCH  24  28
ENDBRANCH  15  18
ENDBRANCH   1  14
BRANCH   1  33
ATOM     33  C   UNL     1      31.672  15.701  -2.627  1.00  0.00     0.021 C
ATOM     34  C   UNL     1      31.302  15.180  -1.259  1.00  0.00     0.006 C
ATOM     35  C   UNL     1      30.420  14.879  -2.440  1.00  0.00     0.006 C
ENDBRANCH   1  33
TORSDOF 1
ENDMDL
MODEL 2
REMARK VINA RESULT:      -9.0      1.039      1.382
REMARK SMILES N#C[C@@H]1C[C@@H]2CCCC3(CC3)c3cnc4[nH]cc(c4n3)C(=O)N[C@H](C3CC3)C(=O)N2C1
REMARK SMILES IDX 24 1 28 2 29 3 30 4 1 5 2 6 3 7 4 8 31 9 5 10 6 11 7 12
REMARK SMILES IDX 23 14 21 15 22 16 18 18 17 19 19 20 16 21 20 22 15 23 12 24
REMARK SMILES IDX 14 25 13 26 9 28 10 29 11 30 8 31 25 33 26 34 27 35
REMARK H PARENT 23 17 16 27
REMARK Flexibility Score:   67.900
ROOT
ATOM      1  C   UNL     1      32.634  14.930  -3.922  1.00  0.00     0.175 C
ENDROOT
BRANCH   1   2
ATOM      2  C   UNL     1      32.125  14.659  -5.357  1.00  0.00     0.245 C
ATOM      3  O   UNL     1      32.034  13.502  -5.771  1.00  0.00    -0.272 OA
BRANCH   2   4
ATOM      4  N   UNL     1      31.939  15.766  -6.168  1.00  0.00    -0.337 N
ATOM      5  N   UNL     1      33.757  19.949  -5.463  1.00  0.00    -0.198 NA
ATOM      6  C   UNL     1      33.146  19.110  -5.982  1.00  0.00     0.067 C
ATOM      7  C   UNL     1      32.385  18.051  -6.645  1.00  0.00     0.114 C
ATOM      8  C   UNL     1      30.980  17.874  -6.048  1.00  0.00     0.045 C
ATOM      9  C   UNL     1      33.040  16.673  -6.466  1.00  0.00     0.138 C
ATOM     10  C   UNL     1      30.660  16.432  -6.426  1.00  0.00     0.086 C
BRANCH  10  11
ATOM     11  C   UNL     1      29.379  15.867  -5.803  1.00  0.00     0.025 C
BRANCH  11  12
ATOM     12  C   UNL     1      28.550  15.084  -6.842  1.00  0.00     0.003 C
ATOM     13  G   UNL     1      28.123  15.947  -8.036  1.00  0.00     0.000 C
ENDBRANCH  11  12
ENDBRANCH  10  11
ENDBRANCH   2   4
ENDBRANCH   1   2
BRANCH   1  14
ATOM     14  N   UNL     1      32.773  13.584  -3.393  1.00  0.00    -0.340 N
ATOM     15  C   UNL     1      33.942  13.041  -2.945  1.00  0.00     0.255 C
ATOM     16  O   UNL     1      34.972  13.686  -2.777  1.00  0.00    -0.269 OA
ATOM     17  H   UNL     1      31.962  12.971  -3.484  1.00  0.00     0.164 HD
BRANCH  15  18
ATOM     18  C   UNL     1      33.869  11.605  -2.714  1.00  0.00     0.085 A
ATOM     19  C   UNL     1      34.830  10.841  -2.063  1.00  0.00     0.100 A
ATOM     20  C   UNL     1      32.858  10.695  -3.141  1.00  0.00     0.120 A
ATOM     21  N   UNL     1      34.424   9.528  -2.072  1.00  0.00    -0.344 N
ATOM     22  N   UNL     1      31.717  10.914  -3.846  1.00  0.00    -0.246 NA
ATOM     23  C   UNL     1      33.240   9.421  -2.745  1.00  0.00     0.156 A
ATOM     24  C   UNL     1      31.007   9.803  -4.176  1.00  0.00     0.066 A
ATOM     25  N   UNL     1      32.570   8.282  -2.994  1.00  0.00    -0.235 NA
ATOM     26  C   UNL     1      31.452   8.542  -3.731  1.00  0.00     0.138 A
ATOM     27  H   UNL     1      34.922   8.743  -1.680  1.00  0.00     0.168 HD
BRANCH  24  28
ATOM     28  C   UNL     1      29.736   9.975  -5.056  1.00  0.00     0.014 C
ATOM     29  C   UNL     1      28.470  10.554  -4.437  1.00  0.00     0.014 C
ATOM     30  C   UNL     1      29.276  11.390  -5.388  1.00  0.00     0.014 C
BRANCH  28  31
ATOM     31  C   UNL     1      29.523   8.938  -6.167  1.00  0.00     0.013 C
ATOM     32  G   UNL     1      28.390   7.949  -5.865  1.00  0.00     0.000 C
ENDBRANCH  28  31
ENDBRANCH  24  28
ENDBRANCH  15  18
ENDBRANCH   1  14
BRANCH   1  33
ATOM     33  C   UNL     1      31.634  15.693  -3.101  1.00  0.00     0.021 C
ATOM     34  C   UNL     1      31.486  15.428  -1.622  1.00  0.00     0.006 C
ATOM     35  C   UNL     1      30.394  15.014  -2.570  1.00  0.00     0.006 C
ENDBRANCH   1  33
TORSDOF 1
ENDMDL
MODEL 3
REMARK VINA RESULT:      -8.9      1.211      1.732
REMARK SMILES N#C[C@@H]1C[C@@H]2CCCC3(CC3)c3cnc4[nH]cc(c4n3)C(=O)N[C@H](C3CC3)C(=O)N2C1
REMARK SMILES IDX 24 1 28 2 29 3 30 4 1 5 2 6 3 7 4 8 31 9 5 10 6 11 7 12
REMARK SMILES IDX 23 14 21 15 22 16 18 18 17 19 19 20 16 21 20 22 15 23 12 24
REMARK SMILES IDX 14 25 13 26 9 28 10 29 11 30 8 31 25 33 26 34 27 35
REMARK H PARENT 23 17 16 27
REMARK Flexibility Score:   67.900
ROOT
ATOM      1  C   UNL     1      32.548  14.953  -3.936  1.00  0.00     0.175 C
ENDROOT
BRANCH   1   2
ATOM      2  C   UNL     1      32.079  14.716  -5.390  1.00  0.00     0.245 C
ATOM      3  O   UNL     1      32.003  13.569  -5.834  1.00  0.00    -0.272 OA
BRANCH   2   4
ATOM      4  N   UNL     1      31.913  15.842  -6.180  1.00  0.00    -0.337 N
ATOM      5  N   UNL     1      33.672  20.018  -5.309  1.00  0.00    -0.198 NA
ATOM      6  C   UNL     1      33.086  19.188  -5.869  1.00  0.00     0.067 C
ATOM      7  C   UNL     1      32.357  18.140  -6.584  1.00  0.00     0.114 C
ATOM      8  C   UNL     1      30.934  17.939  -6.041  1.00  0.00     0.045 C
ATOM      9  C   UNL     1      33.017  16.763  -6.417  1.00  0.00     0.138 C
ATOM     10  C   UNL     1      30.639  16.504  -6.466  1.00  0.00     0.086 C
BRANCH  10  11
ATOM     11  C   UNL     1      29.341  15.915  -5.903  1.00  0.00     0.025 C
BRANCH  11  12
ATOM     12  C   UNL     1      28.566  16.959  -5.073  1.00  0.00     0.003 C
ATOM     13  G   UNL     1      27.281  17.432  -5.762  1.00  0.00     0.000 C
ENDBRANCH  11  12
ENDBRANCH  10  11
ENDBRANCH   2   4
ENDBRANCH   1   2
BRANCH   1  14
ATOM     14  N   UNL     1      32.696  13.595  -3.442  1.00  0.00    -0.340 N
ATOM     15  C   UNL     1      33.862  13.060  -2.977  1.00  0.00     0.255 C
ATOM     16  O   UNL     1      34.875  13.717  -2.761  1.00  0.00    -0.269 OA
ATOM     17  H   UNL     1      31.900  12.971  -3.574  1.00  0.00     0.164 HD
BRANCH  15  18
ATOM     18  C   UNL     1      33.808  11.617  -2.789  1.00  0.00     0.085 A
ATOM     19  C   UNL     1      34.819  10.834  -2.244  1.00  0.00     0.100 A
ATOM     20  C   UNL     1      32.766  10.719  -3.162  1.00  0.00     0.120 A
ATOM     21  N   UNL     1      34.414   9.521  -2.265  1.00  0.00    -0.344 N
ATOM     22  N   UNL     1      31.571  10.958  -3.764  1.00  0.00    -0.246 NA
ATOM     23  C   UNL     1      33.179   9.434  -2.842  1.00  0.00     0.156 A
ATOM     24  C   UNL     1      30.836   9.856  -4.072  1.00  0.00     0.066 A
ATOM     25  N   UNL     1      32.491   8.302  -3.073  1.00  0.00    -0.235 NA
ATOM     26  C   UNL     1      31.317   8.583  -3.707  1.00  0.00     0.138 A
ATOM     27  H   UNL     1      34.943   8.725  -1.942  1.00  0.00     0.168 HD
BRANCH  24  28
ATOM     28  C   UNL     1      29.498  10.054  -4.838  1.00  0.00     0.014 C
ATOM     29  C   UNL     1      29.328   9.434  -6.220  1.00  0.00     0.014 C
ATOM     30  C   UNL     1      28.602   8.838  -5.049  1.00  0.00     0.014 C
BRANCH  28  31
ATOM     31  C   UNL     1      28.761  11.380  -4.605  1.00  0.00     0.013 C
ATOM     32  G   UNL     1      27.917  11.824  -5.806  1.00  0.00     0.000 C
ENDBRANCH  28  31
ENDBRANCH  24  28
ENDBRANCH  15  18
ENDBRANCH   1  14
BRANCH   1  33
ATOM     33  C   UNL     1      31.515  15.677  -3.119  1.00  0.00     0.021 C
ATOM     34  C   UNL     1      31.433  15.477  -1.625  1.00  0.00     0.006 C
ATOM     35  C   UNL     1      30.350  14.931  -2.515  1.00  0.00     0.006 C
ENDBRANCH   1  33
TORSDOF 1
ENDMDL
MODEL 4
REMARK VINA RESULT:      -8.9      2.119      4.023
REMARK SMILES N#C[C@@H]1C[C@@H]2CCCC3(CC3)c3cnc4[nH]cc(c4n3)C(=O)N[C@H](C3CC3)C(=O)N2C1
REMARK SMILES IDX 24 1 28 2 29 3 30 4 1 5 2 6 3 7 4 8 31 9 5 10 6 11 7 12
REMARK SMILES IDX 23 14 21 15 22 16 18 18 17 19 19 20 16 21 20 22 15 23 12 24
REMARK SMILES IDX 14 25 13 26 9 28 10 29 11 30 8 31 25 33 26 34 27 35
REMARK H PARENT 23 17 16 27
REMARK Flexibility Score:   67.900
ROOT
ATOM      1  C   UNL     1      29.769  15.119  -5.054  1.00  0.00     0.175 C
ENDROOT
BRANCH   1   2
ATOM      2  C   UNL     1      30.274  16.312  -5.897  1.00  0.00     0.245 C
ATOM      3  O   UNL     1      31.143  16.139  -6.753  1.00  0.00    -0.272 OA
BRANCH   2   4
ATOM      4  N   UNL     1      29.818  17.568  -5.530  1.00  0.00    -0.337 N
ATOM      5  N   UNL     1      27.585  20.526  -8.278  1.00  0.00    -0.198 NA
ATOM      6  C   UNL     1      28.079  20.110  -7.315  1.00  0.00     0.067 C
ATOM      7  C   UNL     1      28.690  19.581  -6.095  1.00  0.00     0.114 C
ATOM      8  C   UNL     1      30.212  19.791  -6.062  1.00  0.00     0.045 C
ATOM      9  C   UNL     1      28.522  18.059  -5.979  1.00  0.00     0.138 C
ATOM     10  C   UNL     1      30.657  18.691  -5.103  1.00  0.00     0.086 C
BRANCH  10  11
ATOM     11  C   UNL     1      32.174  18.498  -4.995  1.00  0.00     0.025 C
BRANCH  11  12
ATOM     12  C   UNL     1      32.908  19.173  -6.171  1.00  0.00     0.003 C
ATOM     13  G   UNL     1      34.030  18.302  -6.750  1.00  0.00     0.000 C
ENDBRANCH  11  12
ENDBRANCH  10  11
ENDBRANCH   2   4
ENDBRANCH   1   2
BRANCH   1  14
ATOM     14  N   UNL     1      30.991  14.664  -4.413  1.00  0.00    -0.340 N
ATOM     15  C   UNL     1      31.558  15.247  -3.317  1.00  0.00     0.255 C
ATOM     16  O   UNL     1      31.007  16.113  -2.645  1.00  0.00    -0.269 OA
ATOM     17  H   UNL     1      31.519  13.939  -4.899  1.00  0.00     0.164 HD
BRANCH  15  18
ATOM     18  C   UNL     1      32.904  14.769  -3.031  1.00  0.00     0.085 A
ATOM     19  C   UNL     1      34.045  15.559  -2.966  1.00  0.00     0.100 A
ATOM     20  C   UNL     1      33.335  13.427  -2.821  1.00  0.00     0.120 A
ATOM     21  N   UNL     1      35.124  14.746  -2.711  1.00  0.00    -0.344 N
ATOM     22  N   UNL     1      32.628  12.265  -2.816  1.00  0.00    -0.246 NA
ATOM     23  C   UNL     1      34.711  13.446  -2.644  1.00  0.00     0.156 A
ATOM     24  C   UNL     1      33.363  11.130  -2.677  1.00  0.00     0.066 A
ATOM     25  N   UNL     1      35.499  12.373  -2.458  1.00  0.00    -0.235 NA
ATOM     26  C   UNL     1      34.757  11.229  -2.494  1.00  0.00     0.138 A
ATOM     27  H   UNL     1      36.086  15.038  -2.618  1.00  0.00     0.168 HD
BRANCH  24  28
ATOM     28  C   UNL     1      32.627   9.762  -2.749  1.00  0.00     0.014 C
ATOM     29  C   UNL     1      33.420   8.475  -2.559  1.00  0.00     0.014 C
ATOM     30  C   UNL     1      32.501   8.944  -1.469  1.00  0.00     0.014 C
BRANCH  28  31
ATOM     31  C   UNL     1      31.429   9.675  -3.704  1.00  0.00     0.013 C
ATOM     32  G   UNL     1      31.186   8.261  -4.245  1.00  0.00     0.000 C
ENDBRANCH  28  31
ENDBRANCH  24  28
ENDBRANCH  15  18
ENDBRANCH   1  14
BRANCH   1  33
ATOM     33  C   UNL     1      29.209  14.018  -5.909  1.00  0.00     0.021 C
ATOM     34  C   UNL     1      27.965  14.240  -6.736  1.00  0.00     0.006 C
ATOM     35  C   UNL     1      27.915  13.335  -5.535  1.00  0.00     0.006 C
ENDBRANCH   1  33
TORSDOF 1
ENDMDL
MODEL 5
REMARK VINA RESULT:      -8.7      2.208      3.471
REMARK SMILES N#C[C@@H]1C[C@@H]2CCCC3(CC3)c3cnc4[nH]cc(c4n3)C(=O)N[C@H](C3CC3)C(=O)N2C1
REMARK SMILES IDX 24 1 28 2 29 3 30 4 1 5 2 6 3 7 4 8 31 9 5 10 6 11 7 12
REMARK SMILES IDX 23 14 21 15 22 16 18 18 17 19 19 20 16 21 20 22 15 23 12 24
REMARK SMILES IDX 14 25 13 26 9 28 10 29 11 30 8 31 25 33 26 34 27 35
REMARK H PARENT 23 17 16 27
REMARK Flexibility Score:   67.900
ROOT
ATOM      1  C   UNL     1      30.577  13.847  -4.329  1.00  0.00     0.175 C
ENDROOT
BRANCH   1   2
ATOM      2  C   UNL     1      29.301  13.682  -5.187  1.00  0.00     0.245 C
ATOM      3  O   UNL     1      28.805  12.565  -5.345  1.00  0.00    -0.272 OA
BRANCH   2   4
ATOM      4  N   UNL     1      28.863  14.805  -5.870  1.00  0.00    -0.337 N
ATOM      5  N   UNL     1      30.913  18.939  -5.836  1.00  0.00    -0.198 NA
ATOM      6  C   UNL     1      30.136  18.121  -6.107  1.00  0.00     0.067 C
ATOM      7  C   UNL     1      29.163  17.086  -6.459  1.00  0.00     0.114 C
ATOM      8  C   UNL     1      28.062  16.929  -5.399  1.00  0.00     0.045 C
ATOM      9  C   UNL     1      29.805  15.694  -6.537  1.00  0.00     0.138 C
ATOM     10  C   UNL     1      27.593  15.499  -5.647  1.00  0.00     0.086 C
BRANCH  10  11
ATOM     11  C   UNL     1      26.607  14.950  -4.610  1.00  0.00     0.025 C
BRANCH  11  12
ATOM     12  C   UNL     1      25.437  14.208  -5.287  1.00  0.00     0.003 C
ATOM     13  G   UNL     1      25.718  13.871  -6.757  1.00  0.00     0.000 C
ENDBRANCH  11  12
ENDBRANCH  10  11
ENDBRANCH   2   4
ENDBRANCH   1   2
BRANCH   1  14
ATOM     14  N   UNL     1      30.820  12.486  -3.884  1.00  0.00    -0.340 N
ATOM     15  C   UNL     1      32.029  11.855  -3.933  1.00  0.00     0.255 C
ATOM     16  O   UNL     1      33.083  12.424  -4.196  1.00  0.00    -0.269 OA
ATOM     17  H   UNL     1      29.998  11.932  -3.639  1.00  0.00     0.164 HD
BRANCH  15  18
ATOM     18  C   UNL     1      31.952  10.424  -3.676  1.00  0.00     0.085 A
ATOM     19  C   UNL     1      32.781   9.711  -2.818  1.00  0.00     0.100 A
ATOM     20  C   UNL     1      31.079   9.467  -4.271  1.00  0.00     0.120 A
ATOM     21  N   UNL     1      32.425   8.385  -2.868  1.00  0.00    -0.344 N
ATOM     22  N   UNL     1      30.101   9.628  -5.202  1.00  0.00    -0.246 NA
ATOM     23  C   UNL     1      31.408   8.219  -3.765  1.00  0.00     0.156 A
ATOM     24  C   UNL     1      29.507   8.484  -5.634  1.00  0.00     0.066 A
ATOM     25  N   UNL     1      30.838   7.051  -4.109  1.00  0.00    -0.235 NA
ATOM     26  C   UNL     1      29.889   7.252  -5.067  1.00  0.00     0.138 A
ATOM     27  H   UNL     1      32.855   7.628  -2.357  1.00  0.00     0.168 HD
BRANCH  24  28
ATOM     28  C   UNL     1      28.440   8.588  -6.761  1.00  0.00     0.014 C
ATOM     29  C   UNL     1      26.972   8.352  -6.425  1.00  0.00     0.014 C
ATOM     30  C   UNL     1      27.449   9.746  -6.710  1.00  0.00     0.014 C
BRANCH  28  31
ATOM     31  C   UNL     1      28.881   8.163  -8.168  1.00  0.00     0.013 C
ATOM     32  G   UNL     1      28.256   6.839  -8.625  1.00  0.00     0.000 C
ENDBRANCH  28  31
ENDBRANCH  24  28
ENDBRANCH  15  18
ENDBRANCH   1  14
BRANCH   1  33
ATOM     33  C   UNL     1      30.349  14.734  -3.138  1.00  0.00     0.021 C
ATOM     34  C   UNL     1      30.953  16.116  -3.076  1.00  0.00     0.006 C
ATOM     35  C   UNL     1      31.470  15.031  -2.172  1.00  0.00     0.006 C
ENDBRANCH   1  33
TORSDOF 1
ENDMDL
MODEL 6
REMARK VINA RESULT:      -8.7      2.837      5.726
REMARK SMILES N#C[C@@H]1C[C@@H]2CCCC3(CC3)c3cnc4[nH]cc(c4n3)C(=O)N[C@H](C3CC3)C(=O)N2C1
REMARK SMILES IDX 24 1 28 2 29 3 30 4 1 5 2 6 3 7 4 8 31 9 5 10 6 11 7 12
REMARK SMILES IDX 23 14 21 15 22 16 18 18 17 19 19 20 16 21 20 22 15 23 12 24
REMARK SMILES IDX 14 25 13 26 9 28 10 29 11 30 8 31 25 33 26 34 27 35
REMARK H PARENT 23 17 16 27
REMARK Flexibility Score:   67.900
ROOT
ATOM      1  C   UNL     1      31.238  16.821  -6.145  1.00  0.00     0.175 C
ENDROOT
BRANCH   1   2
ATOM      2  C   UNL     1      30.758  17.544  -4.865  1.00  0.00     0.245 C
ATOM      3  O   UNL     1      31.168  17.181  -3.761  1.00  0.00    -0.272 OA
BRANCH   2   4
ATOM      4  N   UNL     1      29.753  18.484  -5.024  1.00  0.00    -0.337 N
ATOM      5  N   UNL     1      25.827  17.848  -7.364  1.00  0.00    -0.198 NA
ATOM      6  C   UNL     1      26.624  18.391  -6.718  1.00  0.00     0.067 C
ATOM      7  C   UNL     1      27.622  19.072  -5.893  1.00  0.00     0.114 C
ATOM      8  C   UNL     1      28.751  19.693  -6.730  1.00  0.00     0.045 C
ATOM      9  C   UNL     1      28.348  18.103  -4.950  1.00  0.00     0.138 C
ATOM     10  C   UNL     1      29.886  19.769  -5.713  1.00  0.00     0.086 C
BRANCH  10  11
ATOM     11  C   UNL     1      31.246  20.177  -6.289  1.00  0.00     0.025 C
BRANCH  11  12
ATOM     12  C   UNL     1      31.644  21.596  -5.833  1.00  0.00     0.003 C
ATOM     13  G   UNL     1      31.694  21.738  -4.307  1.00  0.00     0.000 C
ENDBRANCH  11  12
ENDBRANCH  10  11
ENDBRANCH   2   4
ENDBRANCH   1   2
BRANCH   1  14
ATOM     14  N   UNL     1      30.621  15.514  -6.002  1.00  0.00    -0.340 N
ATOM     15  C   UNL     1      29.427  15.153  -6.554  1.00  0.00     0.255 C
ATOM     16  O   UNL     1      28.824  15.834  -7.377  1.00  0.00    -0.269 OA
ATOM     17  H   UNL     1      31.057  14.873  -5.338  1.00  0.00     0.164 HD
BRANCH  15  18
ATOM     18  C   UNL     1      28.908  13.889  -6.050  1.00  0.00     0.085 A
ATOM     19  C   UNL     1      27.590  13.459  -6.148  1.00  0.00     0.100 A
ATOM     20  C   UNL     1      29.603  12.880  -5.322  1.00  0.00     0.120 A
ATOM     21  N   UNL     1      27.482  12.238  -5.527  1.00  0.00    -0.344 N
ATOM     22  N   UNL     1      30.902  12.818  -4.924  1.00  0.00    -0.246 NA
ATOM     23  C   UNL     1      28.691  11.885  -5.000  1.00  0.00     0.156 A
ATOM     24  C   UNL     1      31.230  11.747  -4.152  1.00  0.00     0.066 A
ATOM     25  N   UNL     1      28.950  10.779  -4.281  1.00  0.00    -0.235 NA
ATOM     26  C   UNL     1      30.251  10.773  -3.873  1.00  0.00     0.138 A
ATOM     27  H   UNL     1      26.643  11.686  -5.432  1.00  0.00     0.168 HD
BRANCH  24  28
ATOM     28  C   UNL     1      32.678  11.659  -3.592  1.00  0.00     0.014 C
ATOM     29  C   UNL     1      33.017  10.589  -2.562  1.00  0.00     0.014 C
ATOM     30  C   UNL     1      33.523  10.447  -3.967  1.00  0.00     0.014 C
BRANCH  28  31
ATOM     31  C   UNL     1      33.446  12.981  -3.462  1.00  0.00     0.013 C
ATOM     32  G   UNL     1      32.953  13.859  -2.306  1.00  0.00     0.000 C
ENDBRANCH  28  31
ENDBRANCH  24  28
ENDBRANCH  15  18
ENDBRANCH   1  14
BRANCH   1  33
ATOM     33  C   UNL     1      32.733  16.672  -6.184  1.00  0.00     0.021 C
ATOM     34  C   UNL     1      33.634  17.811  -5.772  1.00  0.00     0.006 C
ATOM     35  C   UNL     1      33.553  17.404  -7.218  1.00  0.00     0.006 C
ENDBRANCH   1  33
TORSDOF 1
ENDMDL
MODEL 7
REMARK VINA RESULT:      -8.7      2.810      8.869
REMARK SMILES N#C[C@@H]1C[C@@H]2CCCC3(CC3)c3cnc4[nH]cc(c4n3)C(=O)N[C@H](C3CC3)C(=O)N2C1
REMARK SMILES IDX 24 1 28 2 29 3 30 4 1 5 2 6 3 7 4 8 31 9 5 10 6 11 7 12
REMARK SMILES IDX 23 14 21 15 22 16 18 18 17 19 19 20 16 21 20 22 15 23 12 24
REMARK SMILES IDX 14 25 13 26 9 28 10 29 11 30 8 31 25 33 26 34 27 35
REMARK H PARENT 23 17 16 27
REMARK Flexibility Score:   67.900
ROOT
ATOM      1  C   UNL     1      30.141  15.309  -3.628  1.00  0.00     0.175 C
ENDROOT
BRANCH   1   2
ATOM      2  C   UNL     1      31.093  14.902  -4.776  1.00  0.00     0.245 C
ATOM      3  O   UNL     1      31.807  15.749  -5.315  1.00  0.00    -0.272 OA
BRANCH   2   4
ATOM      4  N   UNL     1      30.977  13.604  -5.246  1.00  0.00    -0.337 N
ATOM      5  N   UNL     1      27.388  10.795  -4.525  1.00  0.00    -0.198 NA
ATOM      6  C   UNL     1      28.419  11.150  -4.922  1.00  0.00     0.067 C
ATOM      7  C   UNL     1      29.712  11.601  -5.434  1.00  0.00     0.114 C
ATOM      8  C   UNL     1      30.840  11.449  -4.401  1.00  0.00     0.045 C
ATOM      9  C   UNL     1      29.711  13.102  -5.763  1.00  0.00     0.138 C
ATOM     10  C   UNL     1      31.850  12.483  -4.887  1.00  0.00     0.086 C
BRANCH  10  11
ATOM     11  C   UNL     1      33.035  12.724  -3.946  1.00  0.00     0.025 C
BRANCH  11  12
ATOM     12  C   UNL     1      33.172  11.586  -2.915  1.00  0.00     0.003 C
ATOM     13  G   UNL     1      34.595  11.019  -2.838  1.00  0.00     0.000 C
ENDBRANCH  11  12
ENDBRANCH  10  11
ENDBRANCH   2   4
ENDBRANCH   1   2
BRANCH   1  14
ATOM     14  N   UNL     1      29.416  16.421  -4.219  1.00  0.00    -0.340 N
ATOM     15  C   UNL     1      28.190  16.324  -4.811  1.00  0.00     0.255 C
ATOM     16  O   UNL     1      27.485  15.322  -4.757  1.00  0.00    -0.269 OA
ATOM     17  H   UNL     1      29.922  17.303  -4.304  1.00  0.00     0.164 HD
BRANCH  15  18
ATOM     18  C   UNL     1      27.802  17.517  -5.550  1.00  0.00     0.085 A
ATOM     19  C   UNL     1      26.610  17.687  -6.244  1.00  0.00     0.100 A
ATOM     20  C   UNL     1      28.559  18.706  -5.763  1.00  0.00     0.120 A
ATOM     21  N   UNL     1      26.624  18.925  -6.840  1.00  0.00    -0.344 N
ATOM     22  N   UNL     1      29.805  19.046  -5.336  1.00  0.00    -0.246 NA
ATOM     23  C   UNL     1      27.811  19.545  -6.576  1.00  0.00     0.156 A
ATOM     24  C   UNL     1      30.282  20.232  -5.797  1.00  0.00     0.066 A
ATOM     25  N   UNL     1      28.196  20.749  -7.036  1.00  0.00    -0.235 NA
ATOM     26  C   UNL     1      29.461  21.035  -6.613  1.00  0.00     0.138 A
ATOM     27  H   UNL     1      25.896  19.322  -7.415  1.00  0.00     0.168 HD
BRANCH  24  28
ATOM     28  C   UNL     1      31.733  20.640  -5.416  1.00  0.00     0.014 C
ATOM     29  C   UNL     1      32.269  21.996  -5.859  1.00  0.00     0.014 C
ATOM     30  C   UNL     1      31.923  21.775  -4.416  1.00  0.00     0.014 C
BRANCH  28  31
ATOM     31  C   UNL     1      32.766  19.509  -5.329  1.00  0.00     0.013 C
ATOM     32  G   UNL     1      33.693  19.438  -6.549  1.00  0.00     0.000 C
ENDBRANCH  28  31
ENDBRANCH  24  28
ENDBRANCH  15  18
ENDBRANCH   1  14
BRANCH   1  33
ATOM     33  C   UNL     1      30.887  15.783  -2.413  1.00  0.00     0.021 C
ATOM     34  C   UNL     1      32.176  15.119  -1.992  1.00  0.00     0.006 C
ATOM     35  C   UNL     1      30.935  14.940  -1.162  1.00  0.00     0.006 C
ENDBRANCH   1  33
TORSDOF 1
ENDMDL
MODEL 8
REMARK VINA RESULT:      -8.7      2.353      3.810
REMARK SMILES N#C[C@@H]1C[C@@H]2CCCC3(CC3)c3cnc4[nH]cc(c4n3)C(=O)N[C@H](C3CC3)C(=O)N2C1
REMARK SMILES IDX 24 1 28 2 29 3 30 4 1 5 2 6 3 7 4 8 31 9 5 10 6 11 7 12
REMARK SMILES IDX 23 14 21 15 22 16 18 18 17 19 19 20 16 21 20 22 15 23 12 24
REMARK SMILES IDX 14 25 13 26 9 28 10 29 11 30 8 31 25 33 26 34 27 35
REMARK H PARENT 23 17 16 27
REMARK Flexibility Score:   67.900
ROOT
ATOM      1  C   UNL     1      30.447  13.602  -4.413  1.00  0.00     0.175 C
ENDROOT
BRANCH   1   2
ATOM      2  C   UNL     1      29.137  13.451  -5.219  1.00  0.00     0.245 C
ATOM      3  O   UNL     1      28.600  12.346  -5.321  1.00  0.00    -0.272 OA
BRANCH   2   4
ATOM      4  N   UNL     1      28.710  14.564  -5.924  1.00  0.00    -0.337 N
ATOM      5  N   UNL     1      30.823  18.666  -6.004  1.00  0.00    -0.198 NA
ATOM      6  C   UNL     1      30.031  17.854  -6.249  1.00  0.00     0.067 C
ATOM      7  C   UNL     1      29.039  16.827  -6.569  1.00  0.00     0.114 C
ATOM      8  C   UNL     1      27.945  16.711  -5.496  1.00  0.00     0.045 C
ATOM      9  C   UNL     1      29.660  15.423  -6.620  1.00  0.00     0.138 C
ATOM     10  C   UNL     1      27.452  15.283  -5.707  1.00  0.00     0.086 C
BRANCH  10  11
ATOM     11  C   UNL     1      26.467  14.774  -4.649  1.00  0.00     0.025 C
BRANCH  11  12
ATOM     12  C   UNL     1      25.244  14.099  -5.302  1.00  0.00     0.003 C
ATOM     13  G   UNL     1      25.451  13.805  -6.793  1.00  0.00     0.000 C
ENDBRANCH  11  12
ENDBRANCH  10  11
ENDBRANCH   2   4
ENDBRANCH   1   2
BRANCH   1  14
ATOM     14  N   UNL     1      30.688  12.240  -3.969  1.00  0.00    -0.340 N
ATOM     15  C   UNL     1      31.868  11.570  -4.117  1.00  0.00     0.255 C
ATOM     16  O   UNL     1      32.911  12.102  -4.483  1.00  0.00    -0.269 OA
ATOM     17  H   UNL     1      29.875  11.716  -3.642  1.00  0.00     0.164 HD
BRANCH  15  18
ATOM     18  C   UNL     1      31.771  10.146  -3.829  1.00  0.00     0.085 A
ATOM     19  C   UNL     1      32.546   9.453  -2.908  1.00  0.00     0.100 A
ATOM     20  C   UNL     1      30.930   9.178  -4.451  1.00  0.00     0.120 A
ATOM     21  N   UNL     1      32.188   8.126  -2.947  1.00  0.00    -0.344 N
ATOM     22  N   UNL     1      30.008   9.317  -5.441  1.00  0.00    -0.246 NA
ATOM     23  C   UNL     1      31.225   7.941  -3.897  1.00  0.00     0.156 A
ATOM     24  C   UNL     1      29.436   8.165  -5.880  1.00  0.00     0.066 A
ATOM     25  N   UNL     1      30.672   6.766  -4.246  1.00  0.00    -0.235 NA
ATOM     26  C   UNL     1      29.780   6.946  -5.262  1.00  0.00     0.138 A
ATOM     27  H   UNL     1      32.585   7.381  -2.394  1.00  0.00     0.168 HD
BRANCH  24  28
ATOM     28  C   UNL     1      28.437   8.244  -7.069  1.00  0.00     0.014 C
ATOM     29  C   UNL     1      28.965   8.174  -8.496  1.00  0.00     0.014 C
ATOM     30  C   UNL     1      28.232   6.997  -7.922  1.00  0.00     0.014 C
BRANCH  28  31
ATOM     31  C   UNL     1      27.186   9.108  -6.859  1.00  0.00     0.013 C
ATOM     32  G   UNL     1      27.017  10.199  -7.924  1.00  0.00     0.000 C
ENDBRANCH  28  31
ENDBRANCH  24  28
ENDBRANCH  15  18
ENDBRANCH   1  14
BRANCH   1  33
ATOM     33  C   UNL     1      30.278  14.499  -3.219  1.00  0.00     0.021 C
ATOM     34  C   UNL     1      30.835  15.902  -3.222  1.00  0.00     0.006 C
ATOM     35  C   UNL     1      31.458  14.850  -2.346  1.00  0.00     0.006 C
ENDBRANCH   1  33
TORSDOF 1
ENDMDL
MODEL 9
REMARK VINA RESULT:      -8.6      1.725      2.474
REMARK SMILES N#C[C@@H]1C[C@@H]2CCCC3(CC3)c3cnc4[nH]cc(c4n3)C(=O)N[C@H](C3CC3)C(=O)N2C1
REMARK SMILES IDX 24 1 28 2 29 3 30 4 1 5 2 6 3 7 4 8 31 9 5 10 6 11 7 12
REMARK SMILES IDX 23 14 21 15 22 16 18 18 17 19 19 20 16 21 20 22 15 23 12 24
REMARK SMILES IDX 14 25 13 26 9 28 10 29 11 30 8 31 25 33 26 34 27 35
REMARK H PARENT 23 17 16 27
REMARK Flexibility Score:   67.900
ROOT
ATOM      1  C   UNL     1      31.427  14.163  -3.954  1.00  0.00     0.175 C
ENDROOT
BRANCH   1   2
ATOM      2  C   UNL     1      30.737  14.024  -5.331  1.00  0.00     0.245 C
ATOM      3  O   UNL     1      30.329  12.924  -5.708  1.00  0.00    -0.272 OA
BRANCH   2   4
ATOM      4  N   UNL     1      30.752  15.142  -6.147  1.00  0.00    -0.337 N
ATOM      5  N   UNL     1      32.162  19.357  -4.905  1.00  0.00    -0.198 NA
ATOM      6  C   UNL     1      31.749  18.513  -5.586  1.00  0.00     0.067 C
ATOM      7  C   UNL     1      31.241  17.448  -6.450  1.00  0.00     0.114 C
ATOM      8  C   UNL     1      29.731  17.220  -6.277  1.00  0.00     0.045 C
ATOM      9  C   UNL     1      31.863  16.085  -6.111  1.00  0.00     0.138 C
ATOM     10  C   UNL     1      29.577  15.778  -6.748  1.00  0.00     0.086 C
BRANCH  10  11
ATOM     11  C   UNL     1      28.191  15.165  -6.520  1.00  0.00     0.025 C
BRANCH  11  12
ATOM     12  C   UNL     1      27.521  15.750  -5.260  1.00  0.00     0.003 C
ATOM     13  G   UNL     1      26.553  14.767  -4.590  1.00  0.00     0.000 C
ENDBRANCH  11  12
ENDBRANCH  10  11
ENDBRANCH   2   4
ENDBRANCH   1   2
BRANCH   1  14
ATOM     14  N   UNL     1      31.570  12.775  -3.547  1.00  0.00    -0.340 N
ATOM     15  C   UNL     1      32.762  12.142  -3.347  1.00  0.00     0.255 C
ATOM     16  O   UNL     1      33.843  12.719  -3.318  1.00  0.00    -0.269 OA
ATOM     17  H   UNL     1      30.718  12.212  -3.537  1.00  0.00     0.164 HD
BRANCH  15  18
ATOM     18  C   UNL     1      32.639  10.698  -3.201  1.00  0.00     0.085 A
ATOM     19  C   UNL     1      33.523   9.877  -2.513  1.00  0.00     0.100 A
ATOM     20  C   UNL     1      31.651   9.837  -3.762  1.00  0.00     0.120 A
ATOM     21  N   UNL     1      33.093   8.577  -2.629  1.00  0.00    -0.344 N
ATOM     22  N   UNL     1      30.580  10.122  -4.550  1.00  0.00    -0.246 NA
ATOM     23  C   UNL     1      31.970   8.535  -3.405  1.00  0.00     0.156 A
ATOM     24  C   UNL     1      29.878   9.048  -5.000  1.00  0.00     0.066 A
ATOM     25  N   UNL     1      31.301   7.429  -3.773  1.00  0.00    -0.235 NA
ATOM     26  C   UNL     1      30.257   7.755  -4.588  1.00  0.00     0.138 A
ATOM     27  H   UNL     1      33.539   7.760  -2.239  1.00  0.00     0.168 HD
BRANCH  24  28
ATOM     28  C   UNL     1      28.693   9.298  -5.975  1.00  0.00     0.014 C
ATOM     29  C   UNL     1      27.264   9.226  -5.450  1.00  0.00     0.014 C
ATOM     30  C   UNL     1      27.859  10.561  -5.786  1.00  0.00     0.014 C
BRANCH  28  31
ATOM     31  C   UNL     1      28.894   8.856  -7.430  1.00  0.00     0.013 C
ATOM     32  G   UNL     1      28.226   7.514  -7.754  1.00  0.00     0.000 C
ENDBRANCH  28  31
ENDBRANCH  24  28
ENDBRANCH  15  18
ENDBRANCH   1  14
BRANCH   1  33
ATOM     33  C   UNL     1      30.569  14.894  -2.961  1.00  0.00     0.021 C
ATOM     34  C   UNL     1      30.821  16.348  -2.645  1.00  0.00     0.006 C
ATOM     35  C   UNL     1      31.121  15.295  -1.614  1.00  0.00     0.006 C
ENDBRANCH   1  33
TORSDOF 1
ENDMDL
