MODEL 1
REMARK VINA RESULT:      -8.1      0.000      0.000
REMARK SMILES NC(=O)c1cnc2c3c1[nH]c1cc(ccc13)-c1ccc(nn1)N1CCS(=O)(=O)C[C@H]1CCCC1(CC1)[C@H](C(F)(F)F)N2
REMARK SMILES IDX 4 1 5 2 6 3 7 4 8 5 9 6 10 7 11 8 12 9 13 10 14 11 15 12
REMARK SMILES IDX 16 13 2 15 1 16 3 17 42 20 37 22 34 23 35 24 36 25 33 26
REMARK SMILES IDX 38 28 39 29 40 30 41 31 17 32 18 33 22 34 19 35 21 36 20 37
REMARK SMILES IDX 23 38 24 39 30 40 25 41 29 42 26 43 27 44 28 45 31 46 32 47
REMARK H PARENT 10 14 1 18 1 19 42 21
REMARK Flexibility Score:   48.900
ROOT
ATOM      1  C   UNL     1      28.958   6.992  -6.035  1.00  0.00     0.082 A
ATOM      2  C   UNL     1      28.189   6.844  -7.188  1.00  0.00     0.129 A
ATOM      3  N   UNL     1      27.589   7.858  -7.871  1.00  0.00    -0.238 NA
ATOM      4  C   UNL     1      27.712   9.121  -7.409  1.00  0.00     0.136 A
ATOM      5  C   UNL     1      28.344   9.332  -6.162  1.00  0.00     0.051 A
ATOM      6  C   UNL     1      29.062   8.301  -5.561  1.00  0.00     0.065 A
ATOM      7  N   UNL     1      29.872   8.895  -4.611  1.00  0.00    -0.354 N
ATOM      8  C   UNL     1      29.658  10.258  -4.578  1.00  0.00     0.047 A
ATOM      9  C   UNL     1      30.395  11.314  -4.019  1.00  0.00     0.037 A
ATOM     10  C   UNL     1      29.942  12.629  -4.282  1.00  0.00     0.004 A
ATOM     11  C   UNL     1      28.657  12.817  -4.825  1.00  0.00     0.011 A
ATOM     12  C   UNL     1      27.950  11.759  -5.378  1.00  0.00     0.012 A
ATOM     13  C   UNL     1      28.537  10.490  -5.363  1.00  0.00     0.011 A
ATOM     14  H   UNL     1      30.626   8.424  -4.128  1.00  0.00     0.167 HD
ENDROOT
BRANCH   1  15
ATOM     15  C   UNL     1      29.617   5.831  -5.427  1.00  0.00     0.252 C
ATOM     16  N   UNL     1      29.530   4.645  -6.101  1.00  0.00    -0.365 N
ATOM     17  O   UNL     1      30.249   5.928  -4.384  1.00  0.00    -0.269 OA
ATOM     18  H   UNL     1      29.176   4.564  -7.043  1.00  0.00     0.159 HD
ATOM     19  H   UNL     1      30.011   3.850  -5.698  1.00  0.00     0.159 HD
ENDBRANCH   1  15
BRANCH   4  20
ATOM     20  N   UNL     1      27.408  10.171  -8.287  1.00  0.00    -0.358 N
ATOM     21  H   UNL     1      27.089  10.978  -7.752  1.00  0.00     0.162 HD
BRANCH  20  22
ATOM     22  C   UNL     1      26.438   9.760  -9.358  1.00  0.00     0.192 C
BRANCH  22  23
ATOM     23  C   UNL     1      26.984  10.042 -10.798  1.00  0.00    -0.001 C
ATOM     24  C   UNL     1      28.081   9.128 -11.332  1.00  0.00     0.010 C
ATOM     25  C   UNL     1      26.719   9.062 -11.939  1.00  0.00     0.010 C
BRANCH  23  26
ATOM     26  C   UNL     1      27.186  11.549 -11.078  1.00  0.00     0.009 C
ATOM     27  G   UNL     1      28.615  12.044 -11.372  1.00  0.00     0.000 C
ENDBRANCH  23  26
ENDBRANCH  22  23
BRANCH  22  28
ATOM     28  C   UNL     1      25.025  10.395  -9.141  1.00  0.00     0.409 C
ATOM     29  F   UNL     1      24.220   9.574  -8.424  1.00  0.00    -0.169 F
ATOM     30  F   UNL     1      25.091  11.574  -8.476  1.00  0.00    -0.169 F
ATOM     31  F   UNL     1      24.404  10.652 -10.316  1.00  0.00    -0.169 F
ENDBRANCH  22  28
ENDBRANCH  20  22
ENDBRANCH   4  20
BRANCH  10  32
ATOM     32  C   UNL     1      30.882  13.769  -4.347  1.00  0.00     0.093 A
ATOM     33  C   UNL     1      30.917  14.744  -3.360  1.00  0.00     0.035 A
ATOM     34  N   UNL     1      31.293  14.060  -5.604  1.00  0.00    -0.148 NA
ATOM     35  C   UNL     1      31.058  16.066  -3.758  1.00  0.00     0.051 A
ATOM     36  N   UNL     1      31.487  15.362  -5.975  1.00  0.00    -0.132 NA
ATOM     37  C   UNL     1      31.240  16.356  -5.100  1.00  0.00     0.151 A
BRANCH  37  38
ATOM     38  N   UNL     1      31.037  17.639  -5.570  1.00  0.00    -0.350 N
ATOM     39  C   UNL     1      31.992  18.172  -6.524  1.00  0.00     0.134 C
ATOM     40  C   UNL     1      29.689  18.233  -5.450  1.00  0.00     0.098 C
ATOM     41  C   UNL     1      32.518  19.485  -5.981  1.00  0.00     0.158 C
ATOM     42  C   UNL     1      29.712  19.679  -5.951  1.00  0.00     0.162 C
ATOM     43  S   UNL     1      31.179  20.526  -5.429  1.00  0.00     0.154 S
ATOM     44  O   UNL     1      31.177  20.561  -3.977  1.00  0.00    -0.229 OA
ATOM     45  O   UNL     1      31.244  21.762  -6.188  1.00  0.00    -0.229 OA
BRANCH  40  46
ATOM     46  C   UNL     1      28.634  17.445  -6.285  1.00  0.00     0.026 C
BRANCH  46  47
ATOM     47  C   UNL     1      27.281  17.189  -5.581  1.00  0.00     0.003 C
ATOM     48  G   UNL     1      26.825  15.738  -5.820  1.00  0.00     0.000 C
ENDBRANCH  46  47
ENDBRANCH  40  46
ENDBRANCH  37  38
ENDBRANCH  10  32
TORSDOF 2
ENDMDL
MODEL 2
REMARK VINA RESULT:      -8.1      0.936      1.428
REMARK SMILES NC(=O)c1cnc2c3c1[nH]c1cc(ccc13)-c1ccc(nn1)N1CCS(=O)(=O)C[C@H]1CCCC1(CC1)[C@H](C(F)(F)F)N2
REMARK SMILES IDX 4 1 5 2 6 3 7 4 8 5 9 6 10 7 11 8 12 9 13 10 14 11 15 12
REMARK SMILES IDX 16 13 2 15 1 16 3 17 42 20 37 22 34 23 35 24 36 25 33 26
REMARK SMILES IDX 38 28 39 29 40 30 41 31 17 32 18 33 22 34 19 35 21 36 20 37
REMARK SMILES IDX 23 38 24 39 30 40 25 41 29 42 26 43 27 44 28 45 31 46 32 47
REMARK H PARENT 10 14 1 18 1 19 42 21
REMARK Flexibility Score:   48.900
ROOT
ATOM      1  C   UNL     1      29.019   7.042  -5.969  1.00  0.00     0.082 A
ATOM      2  C   UNL     1      28.327   6.869  -7.166  1.00  0.00     0.129 A
ATOM      3  N   UNL     1      27.777   7.868  -7.910  1.00  0.00    -0.238 NA
ATOM      4  C   UNL     1      27.874   9.141  -7.471  1.00  0.00     0.136 A
ATOM      5  C   UNL     1      28.423   9.380  -6.190  1.00  0.00     0.051 A
ATOM      6  C   UNL     1      29.096   8.361  -5.519  1.00  0.00     0.065 A
ATOM      7  N   UNL     1      29.845   8.976  -4.532  1.00  0.00    -0.354 N
ATOM      8  C   UNL     1      29.634  10.339  -4.544  1.00  0.00     0.047 A
ATOM      9  C   UNL     1      30.335  11.407  -3.962  1.00  0.00     0.037 A
ATOM     10  C   UNL     1      29.906  12.716  -4.284  1.00  0.00     0.004 A
ATOM     11  C   UNL     1      28.659  12.894  -4.915  1.00  0.00     0.011 A
ATOM     12  C   UNL     1      27.987  11.825  -5.488  1.00  0.00     0.012 A
ATOM     13  C   UNL     1      28.567  10.556  -5.406  1.00  0.00     0.011 A
ATOM     14  H   UNL     1      30.563   8.514  -3.990  1.00  0.00     0.167 HD
ENDROOT
BRANCH   1  15
ATOM     15  C   UNL     1      29.633   5.894  -5.292  1.00  0.00     0.252 C
ATOM     16  N   UNL     1      29.685   4.719  -5.989  1.00  0.00    -0.365 N
ATOM     17  O   UNL     1      30.112   5.994  -4.172  1.00  0.00    -0.269 OA
ATOM     18  H   UNL     1      29.466   4.643  -6.972  1.00  0.00     0.159 HD
ATOM     19  H   UNL     1      30.136   3.934  -5.535  1.00  0.00     0.159 HD
ENDBRANCH   1  15
BRANCH   4  20
ATOM     20  N   UNL     1      27.631  10.171  -8.389  1.00  0.00    -0.358 N
ATOM     21  H   UNL     1      28.265  10.947  -8.204  1.00  0.00     0.162 HD
BRANCH  20  22
ATOM     22  C   UNL     1      26.188  10.588  -8.416  1.00  0.00     0.192 C
BRANCH  22  23
ATOM     23  C   UNL     1      25.358   9.801  -9.486  1.00  0.00    -0.001 C
ATOM     24  C   UNL     1      24.736   8.475  -9.065  1.00  0.00     0.010 C
ATOM     25  C   UNL     1      23.846   9.642  -9.338  1.00  0.00     0.010 C
BRANCH  23  26
ATOM     26  C   UNL     1      26.023   9.805 -10.881  1.00  0.00     0.009 C
ATOM     27  G   UNL     1      26.666   8.497 -11.379  1.00  0.00     0.000 C
ENDBRANCH  23  26
ENDBRANCH  22  23
BRANCH  22  28
ATOM     28  C   UNL     1      26.031  12.135  -8.586  1.00  0.00     0.409 C
ATOM     29  F   UNL     1      24.947  12.441  -9.340  1.00  0.00    -0.169 F
ATOM     30  F   UNL     1      25.884  12.769  -7.396  1.00  0.00    -0.169 F
ATOM     31  F   UNL     1      27.112  12.688  -9.183  1.00  0.00    -0.169 F
ENDBRANCH  22  28
ENDBRANCH  20  22
ENDBRANCH   4  20
BRANCH  10  32
ATOM     32  C   UNL     1      30.851  13.853  -4.314  1.00  0.00     0.093 A
ATOM     33  C   UNL     1      30.864  14.818  -3.317  1.00  0.00     0.035 A
ATOM     34  N   UNL     1      31.298  14.153  -5.556  1.00  0.00    -0.148 NA
ATOM     35  C   UNL     1      31.021  16.144  -3.699  1.00  0.00     0.051 A
ATOM     36  N   UNL     1      31.507  15.457  -5.910  1.00  0.00    -0.132 NA
ATOM     37  C   UNL     1      31.240  16.444  -5.034  1.00  0.00     0.151 A
BRANCH  37  38
ATOM     38  N   UNL     1      31.056  17.733  -5.497  1.00  0.00    -0.350 N
ATOM     39  C   UNL     1      31.998  18.243  -6.475  1.00  0.00     0.134 C
ATOM     40  C   UNL     1      29.726  18.358  -5.341  1.00  0.00     0.098 C
ATOM     41  C   UNL     1      32.569  19.543  -5.947  1.00  0.00     0.158 C
ATOM     42  C   UNL     1      29.771  19.804  -5.841  1.00  0.00     0.162 C
ATOM     43  S   UNL     1      31.270  20.615  -5.358  1.00  0.00     0.154 S
ATOM     44  O   UNL     1      31.308  20.648  -3.907  1.00  0.00    -0.229 OA
ATOM     45  O   UNL     1      31.345  21.850  -6.118  1.00  0.00    -0.229 OA
BRANCH  40  46
ATOM     46  C   UNL     1      28.630  17.596  -6.147  1.00  0.00     0.026 C
BRANCH  46  47
ATOM     47  C   UNL     1      27.425  17.090  -5.321  1.00  0.00     0.003 C
ATOM     48  G   UNL     1      26.768  15.888  -6.026  1.00  0.00     0.000 C
ENDBRANCH  46  47
ENDBRANCH  40  46
ENDBRANCH  37  38
ENDBRANCH  10  32
TORSDOF 2
ENDMDL
MODEL 3
REMARK VINA RESULT:      -7.8      2.366      3.789
REMARK SMILES NC(=O)c1cnc2c3c1[nH]c1cc(ccc13)-c1ccc(nn1)N1CCS(=O)(=O)C[C@H]1CCCC1(CC1)[C@H](C(F)(F)F)N2
REMARK SMILES IDX 4 1 5 2 6 3 7 4 8 5 9 6 10 7 11 8 12 9 13 10 14 11 15 12
REMARK SMILES IDX 16 13 2 15 1 16 3 17 42 20 37 22 34 23 35 24 36 25 33 26
REMARK SMILES IDX 38 28 39 29 40 30 41 31 17 32 18 33 22 34 19 35 21 36 20 37
REMARK SMILES IDX 23 38 24 39 30 40 25 41 29 42 26 43 27 44 28 45 31 46 32 47
REMARK H PARENT 10 14 1 18 1 19 42 21
REMARK Flexibility Score:   48.900
ROOT
ATOM      1  C   UNL     1      31.560   9.490  -3.612  1.00  0.00     0.082 A
ATOM      2  C   UNL     1      31.309   8.345  -4.366  1.00  0.00     0.129 A
ATOM      3  N   UNL     1      30.322   8.213  -5.293  1.00  0.00    -0.238 NA
ATOM      4  C   UNL     1      29.486   9.251  -5.512  1.00  0.00     0.136 A
ATOM      5  C   UNL     1      29.579  10.389  -4.678  1.00  0.00     0.051 A
ATOM      6  C   UNL     1      30.679  10.549  -3.837  1.00  0.00     0.065 A
ATOM      7  N   UNL     1      30.699  11.883  -3.475  1.00  0.00    -0.354 N
ATOM      8  C   UNL     1      29.630  12.551  -4.035  1.00  0.00     0.047 A
ATOM      9  C   UNL     1      29.358  13.918  -4.207  1.00  0.00     0.037 A
ATOM     10  C   UNL     1      28.202  14.260  -4.946  1.00  0.00     0.004 A
ATOM     11  C   UNL     1      27.243  13.266  -5.221  1.00  0.00     0.011 A
ATOM     12  C   UNL     1      27.536  11.921  -5.049  1.00  0.00     0.012 A
ATOM     13  C   UNL     1      28.803  11.574  -4.573  1.00  0.00     0.011 A
ATOM     14  H   UNL     1      31.472  12.335  -3.004  1.00  0.00     0.167 HD
ENDROOT
BRANCH   1  15
ATOM     15  C   UNL     1      32.702   9.539  -2.692  1.00  0.00     0.252 C
ATOM     16  N   UNL     1      32.974   8.405  -1.979  1.00  0.00    -0.365 N
ATOM     17  O   UNL     1      33.405  10.536  -2.597  1.00  0.00    -0.269 OA
ATOM     18  H   UNL     1      32.534   7.514  -2.160  1.00  0.00     0.159 HD
ATOM     19  H   UNL     1      33.780   8.426  -1.367  1.00  0.00     0.159 HD
ENDBRANCH   1  15
BRANCH   4  20
ATOM     20  N   UNL     1      28.723   9.241  -6.688  1.00  0.00    -0.358 N
ATOM     21  H   UNL     1      28.078  10.030  -6.681  1.00  0.00     0.162 HD
BRANCH  20  22
ATOM     22  C   UNL     1      28.033   7.925  -6.912  1.00  0.00     0.192 C
BRANCH  22  23
ATOM     23  C   UNL     1      27.810   7.619  -8.431  1.00  0.00    -0.001 C
ATOM     24  C   UNL     1      27.081   8.666  -9.265  1.00  0.00     0.010 C
ATOM     25  C   UNL     1      28.534   8.428  -9.505  1.00  0.00     0.010 C
BRANCH  23  26
ATOM     26  C   UNL     1      27.386   6.156  -8.692  1.00  0.00     0.009 C
ATOM     27  G   UNL     1      28.265   5.034  -8.109  1.00  0.00     0.000 C
ENDBRANCH  23  26
ENDBRANCH  22  23
BRANCH  22  28
ATOM     28  C   UNL     1      26.701   7.818  -6.099  1.00  0.00     0.409 C
ATOM     29  F   UNL     1      25.620   7.993  -6.897  1.00  0.00    -0.169 F
ATOM     30  F   UNL     1      26.563   6.612  -5.496  1.00  0.00    -0.169 F
ATOM     31  F   UNL     1      26.637   8.746  -5.116  1.00  0.00    -0.169 F
ENDBRANCH  22  28
ENDBRANCH  20  22
ENDBRANCH   4  20
BRANCH  10  32
ATOM     32  C   UNL     1      28.133  15.508  -5.737  1.00  0.00     0.093 A
ATOM     33  C   UNL     1      28.933  15.712  -6.852  1.00  0.00     0.035 A
ATOM     34  N   UNL     1      27.661  16.567  -5.036  1.00  0.00    -0.148 NA
ATOM     35  C   UNL     1      29.496  16.969  -7.026  1.00  0.00     0.051 A
ATOM     36  N   UNL     1      28.179  17.814  -5.251  1.00  0.00    -0.132 NA
ATOM     37  C   UNL     1      29.178  17.985  -6.138  1.00  0.00     0.151 A
BRANCH  37  38
ATOM     38  N   UNL     1      29.963  19.119  -6.066  1.00  0.00    -0.350 N
ATOM     39  C   UNL     1      31.370  18.992  -6.397  1.00  0.00     0.134 C
ATOM     40  C   UNL     1      29.304  20.441  -6.098  1.00  0.00     0.098 C
ATOM     41  C   UNL     1      32.179  19.526  -5.232  1.00  0.00     0.158 C
ATOM     42  C   UNL     1      30.348  21.546  -5.921  1.00  0.00     0.162 C
ATOM     43  S   UNL     1      31.557  21.111  -4.702  1.00  0.00     0.154 S
ATOM     44  O   UNL     1      30.869  20.947  -3.434  1.00  0.00    -0.229 OA
ATOM     45  O   UNL     1      32.642  22.069  -4.823  1.00  0.00    -0.229 OA
BRANCH  40  46
ATOM     46  C   UNL     1      28.559  20.684  -7.446  1.00  0.00     0.026 C
BRANCH  46  47
ATOM     47  C   UNL     1      27.016  20.733  -7.358  1.00  0.00     0.003 C
ATOM     48  G   UNL     1      26.440  21.487  -8.570  1.00  0.00     0.000 C
ENDBRANCH  46  47
ENDBRANCH  40  46
ENDBRANCH  37  38
ENDBRANCH  10  32
TORSDOF 2
ENDMDL
MODEL 4
REMARK VINA RESULT:      -7.7      2.027      3.108
REMARK SMILES NC(=O)c1cnc2c3c1[nH]c1cc(ccc13)-c1ccc(nn1)N1CCS(=O)(=O)C[C@H]1CCCC1(CC1)[C@H](C(F)(F)F)N2
REMARK SMILES IDX 4 1 5 2 6 3 7 4 8 5 9 6 10 7 11 8 12 9 13 10 14 11 15 12
REMARK SMILES IDX 16 13 2 15 1 16 3 17 42 20 37 22 34 23 35 24 36 25 33 26
REMARK SMILES IDX 38 28 39 29 40 30 41 31 17 32 18 33 22 34 19 35 21 36 20 37
REMARK SMILES IDX 23 38 24 39 30 40 25 41 29 42 26 43 27 44 28 45 31 46 32 47
REMARK H PARENT 10 14 1 18 1 19 42 21
REMARK Flexibility Score:   48.900
ROOT
ATOM      1  C   UNL     1      29.179   8.342  -5.587  1.00  0.00     0.082 A
ATOM      2  C   UNL     1      28.456   7.633  -6.544  1.00  0.00     0.129 A
ATOM      3  N   UNL     1      27.445   8.140  -7.302  1.00  0.00    -0.238 NA
ATOM      4  C   UNL     1      27.073   9.426  -7.124  1.00  0.00     0.136 A
ATOM      5  C   UNL     1      27.653  10.162  -6.065  1.00  0.00     0.051 A
ATOM      6  C   UNL     1      28.773   9.664  -5.402  1.00  0.00     0.065 A
ATOM      7  N   UNL     1      29.337  10.737  -4.735  1.00  0.00    -0.354 N
ATOM      8  C   UNL     1      28.587  11.877  -4.934  1.00  0.00     0.047 A
ATOM      9  C   UNL     1      28.864  13.237  -4.723  1.00  0.00     0.037 A
ATOM     10  C   UNL     1      27.895  14.171  -5.159  1.00  0.00     0.004 A
ATOM     11  C   UNL     1      26.609  13.715  -5.506  1.00  0.00     0.011 A
ATOM     12  C   UNL     1      26.359  12.367  -5.715  1.00  0.00     0.012 A
ATOM     13  C   UNL     1      27.413  11.464  -5.551  1.00  0.00     0.011 A
ATOM     14  H   UNL     1      30.251  10.723  -4.302  1.00  0.00     0.167 HD
ENDROOT
BRANCH   1  15
ATOM     15  C   UNL     1      30.300   7.709  -4.882  1.00  0.00     0.252 C
ATOM     16  N   UNL     1      30.333   6.342  -4.873  1.00  0.00    -0.365 N
ATOM     17  O   UNL     1      31.184   8.372  -4.361  1.00  0.00    -0.269 OA
ATOM     18  H   UNL     1      29.727   5.765  -5.440  1.00  0.00     0.159 HD
ATOM     19  H   UNL     1      31.122   5.903  -4.414  1.00  0.00     0.159 HD
ENDBRANCH   1  15
BRANCH   4  20
ATOM     20  N   UNL     1      26.302  10.029  -8.126  1.00  0.00    -0.358 N
ATOM     21  H   UNL     1      25.801   9.311  -8.647  1.00  0.00     0.162 HD
BRANCH  20  22
ATOM     22  C   UNL     1      27.115  10.933  -9.010  1.00  0.00     0.192 C
BRANCH  22  23
ATOM     23  C   UNL     1      26.381  12.280  -9.323  1.00  0.00    -0.001 C
ATOM     24  C   UNL     1      25.419  12.305 -10.505  1.00  0.00     0.010 C
ATOM     25  C   UNL     1      24.873  12.412  -9.120  1.00  0.00     0.010 C
BRANCH  23  26
ATOM     26  C   UNL     1      27.308  13.510  -9.200  1.00  0.00     0.009 C
ATOM     27  G   UNL     1      27.575  14.344 -10.466  1.00  0.00     0.000 C
ENDBRANCH  23  26
ENDBRANCH  22  23
BRANCH  22  28
ATOM     28  C   UNL     1      27.576  10.209 -10.318  1.00  0.00     0.409 C
ATOM     29  F   UNL     1      28.002  11.096 -11.249  1.00  0.00    -0.169 F
ATOM     30  F   UNL     1      28.596   9.344 -10.092  1.00  0.00    -0.169 F
ATOM     31  F   UNL     1      26.576   9.484 -10.871  1.00  0.00    -0.169 F
ENDBRANCH  22  28
ENDBRANCH  20  22
ENDBRANCH   4  20
BRANCH  10  32
ATOM     32  C   UNL     1      28.277  15.530  -5.601  1.00  0.00     0.093 A
ATOM     33  C   UNL     1      29.023  15.741  -6.751  1.00  0.00     0.035 A
ATOM     34  N   UNL     1      28.306  16.438  -4.596  1.00  0.00    -0.148 NA
ATOM     35  C   UNL     1      30.026  16.701  -6.708  1.00  0.00     0.051 A
ATOM     36  N   UNL     1      29.260  17.417  -4.587  1.00  0.00    -0.132 NA
ATOM     37  C   UNL     1      30.189  17.461  -5.561  1.00  0.00     0.151 A
BRANCH  37  38
ATOM     38  N   UNL     1      31.362  18.160  -5.350  1.00  0.00    -0.350 N
ATOM     39  C   UNL     1      31.268  19.476  -4.747  1.00  0.00     0.134 C
ATOM     40  C   UNL     1      32.637  17.413  -5.322  1.00  0.00     0.098 C
ATOM     41  C   UNL     1      31.973  20.463  -5.655  1.00  0.00     0.158 C
ATOM     42  C   UNL     1      33.806  18.388  -5.162  1.00  0.00     0.162 C
ATOM     43  S   UNL     1      33.576  19.848  -6.139  1.00  0.00     0.154 S
ATOM     44  O   UNL     1      33.525  19.444  -7.533  1.00  0.00    -0.229 OA
ATOM     45  O   UNL     1      34.566  20.812  -5.695  1.00  0.00    -0.229 OA
BRANCH  40  46
ATOM     46  C   UNL     1      32.685  16.395  -4.142  1.00  0.00     0.026 C
BRANCH  46  47
ATOM     47  C   UNL     1      32.459  14.915  -4.527  1.00  0.00     0.003 C
ATOM     48  G   UNL     1      33.174  13.991  -3.524  1.00  0.00     0.000 C
ENDBRANCH  46  47
ENDBRANCH  40  46
ENDBRANCH  37  38
ENDBRANCH  10  32
TORSDOF 2
ENDMDL
MODEL 5
REMARK VINA RESULT:      -7.7      1.859      2.843
REMARK SMILES NC(=O)c1cnc2c3c1[nH]c1cc(ccc13)-c1ccc(nn1)N1CCS(=O)(=O)C[C@H]1CCCC1(CC1)[C@H](C(F)(F)F)N2
REMARK SMILES IDX 4 1 5 2 6 3 7 4 8 5 9 6 10 7 11 8 12 9 13 10 14 11 15 12
REMARK SMILES IDX 16 13 2 15 1 16 3 17 42 20 37 22 34 23 35 24 36 25 33 26
REMARK SMILES IDX 38 28 39 29 40 30 41 31 17 32 18 33 22 34 19 35 21 36 20 37
REMARK SMILES IDX 23 38 24 39 30 40 25 41 29 42 26 43 27 44 28 45 31 46 32 47
REMARK H PARENT 10 14 1 18 1 19 42 21
REMARK Flexibility Score:   48.900
ROOT
ATOM      1  C   UNL     1      29.850   8.242  -5.108  1.00  0.00     0.082 A
ATOM      2  C   UNL     1      29.433   7.451  -6.178  1.00  0.00     0.129 A
ATOM      3  N   UNL     1      28.584   7.847  -7.165  1.00  0.00    -0.238 NA
ATOM      4  C   UNL     1      28.068   9.094  -7.125  1.00  0.00     0.136 A
ATOM      5  C   UNL     1      28.320   9.900  -5.991  1.00  0.00     0.051 A
ATOM      6  C   UNL     1      29.297   9.522  -5.071  1.00  0.00     0.065 A
ATOM      7  N   UNL     1      29.594  10.655  -4.335  1.00  0.00    -0.354 N
ATOM      8  C   UNL     1      28.811  11.715  -4.743  1.00  0.00     0.047 A
ATOM      9  C   UNL     1      28.911  13.098  -4.526  1.00  0.00     0.037 A
ATOM     10  C   UNL     1      27.990  13.929  -5.206  1.00  0.00     0.004 A
ATOM     11  C   UNL     1      26.864  13.346  -5.821  1.00  0.00     0.011 A
ATOM     12  C   UNL     1      26.790  11.978  -6.030  1.00  0.00     0.012 A
ATOM     13  C   UNL     1      27.854  11.182  -5.595  1.00  0.00     0.011 A
ATOM     14  H   UNL     1      30.380  10.735  -3.704  1.00  0.00     0.167 HD
ENDROOT
BRANCH   1  15
ATOM     15  C   UNL     1      30.829   7.729  -4.142  1.00  0.00     0.252 C
ATOM     16  N   UNL     1      30.774   6.394  -3.852  1.00  0.00    -0.365 N
ATOM     17  O   UNL     1      31.681   8.455  -3.650  1.00  0.00    -0.269 OA
ATOM     18  H   UNL     1      30.209   5.735  -4.368  1.00  0.00     0.159 HD
ATOM     19  H   UNL     1      31.468   6.033  -3.210  1.00  0.00     0.159 HD
ENDBRANCH   1  15
BRANCH   4  20
ATOM     20  N   UNL     1      27.499   9.605  -8.299  1.00  0.00    -0.358 N
ATOM     21  H   UNL     1      27.037  10.491  -8.095  1.00  0.00     0.162 HD
BRANCH  20  22
ATOM     22  C   UNL     1      26.591   8.616  -8.974  1.00  0.00     0.192 C
BRANCH  22  23
ATOM     23  C   UNL     1      26.681   8.691 -10.535  1.00  0.00    -0.001 C
ATOM     24  C   UNL     1      27.983   8.248 -11.192  1.00  0.00     0.010 C
ATOM     25  C   UNL     1      26.757   7.417 -11.375  1.00  0.00     0.010 C
BRANCH  23  26
ATOM     26  C   UNL     1      26.058   9.983 -11.110  1.00  0.00     0.009 C
ATOM     27  G   UNL     1      24.858   9.845 -12.065  1.00  0.00     0.000 C
ENDBRANCH  23  26
ENDBRANCH  22  23
BRANCH  22  28
ATOM     28  C   UNL     1      25.114   8.742  -8.473  1.00  0.00     0.409 C
ATOM     29  F   UNL     1      24.692  10.029  -8.503  1.00  0.00    -0.169 F
ATOM     30  F   UNL     1      24.253   8.020  -9.231  1.00  0.00    -0.169 F
ATOM     31  F   UNL     1      24.974   8.295  -7.204  1.00  0.00    -0.169 F
ENDBRANCH  22  28
ENDBRANCH  20  22
ENDBRANCH   4  20
BRANCH  10  32
ATOM     32  C   UNL     1      28.342  15.310  -5.601  1.00  0.00     0.093 A
ATOM     33  C   UNL     1      29.070  15.578  -6.751  1.00  0.00     0.035 A
ATOM     34  N   UNL     1      28.366  16.180  -4.563  1.00  0.00    -0.148 NA
ATOM     35  C   UNL     1      30.055  16.554  -6.683  1.00  0.00     0.051 A
ATOM     36  N   UNL     1      29.302  17.176  -4.528  1.00  0.00    -0.132 NA
ATOM     37  C   UNL     1      30.218  17.273  -5.510  1.00  0.00     0.151 A
BRANCH  37  38
ATOM     38  N   UNL     1      31.381  17.986  -5.286  1.00  0.00    -0.350 N
ATOM     39  C   UNL     1      31.283  19.228  -4.543  1.00  0.00     0.134 C
ATOM     40  C   UNL     1      32.676  17.284  -5.402  1.00  0.00     0.098 C
ATOM     41  C   UNL     1      31.909  20.328  -5.377  1.00  0.00     0.158 C
ATOM     42  C   UNL     1      33.824  18.275  -5.199  1.00  0.00     0.162 C
ATOM     43  S   UNL     1      33.500  19.821  -6.003  1.00  0.00     0.154 S
ATOM     44  O   UNL     1      33.385  19.563  -7.428  1.00  0.00    -0.229 OA
ATOM     45  O   UNL     1      34.486  20.767  -5.511  1.00  0.00    -0.229 OA
BRANCH  40  46
ATOM     46  C   UNL     1      32.817  16.151  -4.340  1.00  0.00     0.026 C
BRANCH  46  47
ATOM     47  C   UNL     1      32.514  14.721  -4.845  1.00  0.00     0.003 C
ATOM     48  G   UNL     1      32.371  13.757  -3.653  1.00  0.00     0.000 C
ENDBRANCH  46  47
ENDBRANCH  40  46
ENDBRANCH  37  38
ENDBRANCH  10  32
TORSDOF 2
ENDMDL
MODEL 6
REMARK VINA RESULT:      -7.7      2.374      3.640
REMARK SMILES NC(=O)c1cnc2c3c1[nH]c1cc(ccc13)-c1ccc(nn1)N1CCS(=O)(=O)C[C@H]1CCCC1(CC1)[C@H](C(F)(F)F)N2
REMARK SMILES IDX 4 1 5 2 6 3 7 4 8 5 9 6 10 7 11 8 12 9 13 10 14 11 15 12
REMARK SMILES IDX 16 13 2 15 1 16 3 17 42 20 37 22 34 23 35 24 36 25 33 26
REMARK SMILES IDX 38 28 39 29 40 30 41 31 17 32 18 33 22 34 19 35 21 36 20 37
REMARK SMILES IDX 23 38 24 39 30 40 25 41 29 42 26 43 27 44 28 45 31 46 32 47
REMARK H PARENT 10 14 1 18 1 19 42 21
REMARK Flexibility Score:   48.900
ROOT
ATOM      1  C   UNL     1      31.359   9.364  -3.764  1.00  0.00     0.082 A
ATOM      2  C   UNL     1      31.111   8.239  -4.547  1.00  0.00     0.129 A
ATOM      3  N   UNL     1      30.140   8.137  -5.495  1.00  0.00    -0.238 NA
ATOM      4  C   UNL     1      29.318   9.188  -5.706  1.00  0.00     0.136 A
ATOM      5  C   UNL     1      29.406  10.305  -4.845  1.00  0.00     0.051 A
ATOM      6  C   UNL     1      30.492  10.436  -3.981  1.00  0.00     0.065 A
ATOM      7  N   UNL     1      30.518  11.762  -3.589  1.00  0.00    -0.354 N
ATOM      8  C   UNL     1      29.465  12.453  -4.153  1.00  0.00     0.047 A
ATOM      9  C   UNL     1      29.210  13.825  -4.299  1.00  0.00     0.037 A
ATOM     10  C   UNL     1      28.070  14.195  -5.052  1.00  0.00     0.004 A
ATOM     11  C   UNL     1      27.108  13.216  -5.366  1.00  0.00     0.011 A
ATOM     12  C   UNL     1      27.385  11.866  -5.219  1.00  0.00     0.012 A
ATOM     13  C   UNL     1      28.640  11.495  -4.728  1.00  0.00     0.011 A
ATOM     14  H   UNL     1      31.286  12.195  -3.095  1.00  0.00     0.167 HD
ENDROOT
BRANCH   1  15
ATOM     15  C   UNL     1      32.485   9.382  -2.823  1.00  0.00     0.252 C
ATOM     16  N   UNL     1      32.508   8.406  -1.865  1.00  0.00    -0.365 N
ATOM     17  O   UNL     1      33.383  10.207  -2.915  1.00  0.00    -0.269 OA
ATOM     18  H   UNL     1      31.889   7.608  -1.867  1.00  0.00     0.159 HD
ATOM     19  H   UNL     1      33.300   8.398  -1.235  1.00  0.00     0.159 HD
ENDBRANCH   1  15
BRANCH   4  20
ATOM     20  N   UNL     1      28.576   9.210  -6.895  1.00  0.00    -0.358 N
ATOM     21  H   UNL     1      27.999  10.050  -6.919  1.00  0.00     0.162 HD
BRANCH  20  22
ATOM     22  C   UNL     1      27.784   7.950  -7.101  1.00  0.00     0.192 C
BRANCH  22  23
ATOM     23  C   UNL     1      27.031   7.936  -8.474  1.00  0.00    -0.001 C
ATOM     24  C   UNL     1      27.855   7.682  -9.731  1.00  0.00     0.010 C
ATOM     25  C   UNL     1      26.888   6.642  -9.272  1.00  0.00     0.010 C
BRANCH  23  26
ATOM     26  C   UNL     1      25.978   9.060  -8.592  1.00  0.00     0.009 C
ATOM     27  G   UNL     1      26.250  10.205  -9.586  1.00  0.00     0.000 C
ENDBRANCH  23  26
ENDBRANCH  22  23
BRANCH  22  28
ATOM     28  C   UNL     1      26.813   7.669  -5.907  1.00  0.00     0.409 C
ATOM     29  F   UNL     1      26.499   8.811  -5.247  1.00  0.00    -0.169 F
ATOM     30  F   UNL     1      25.649   7.108  -6.315  1.00  0.00    -0.169 F
ATOM     31  F   UNL     1      27.356   6.814  -5.009  1.00  0.00    -0.169 F
ENDBRANCH  22  28
ENDBRANCH  20  22
ENDBRANCH   4  20
BRANCH  10  32
ATOM     32  C   UNL     1      28.027  15.461  -5.815  1.00  0.00     0.093 A
ATOM     33  C   UNL     1      28.820  15.666  -6.936  1.00  0.00     0.035 A
ATOM     34  N   UNL     1      27.593  16.517  -5.087  1.00  0.00    -0.148 NA
ATOM     35  C   UNL     1      29.416  16.910  -7.090  1.00  0.00     0.051 A
ATOM     36  N   UNL     1      28.143  17.754  -5.283  1.00  0.00    -0.132 NA
ATOM     37  C   UNL     1      29.136  17.915  -6.178  1.00  0.00     0.151 A
BRANCH  37  38
ATOM     38  N   UNL     1      29.954  19.025  -6.092  1.00  0.00    -0.350 N
ATOM     39  C   UNL     1      31.353  18.866  -6.441  1.00  0.00     0.134 C
ATOM     40  C   UNL     1      29.332  20.366  -6.090  1.00  0.00     0.098 C
ATOM     41  C   UNL     1      32.189  19.353  -5.275  1.00  0.00     0.158 C
ATOM     42  C   UNL     1      30.408  21.437  -5.902  1.00  0.00     0.162 C
ATOM     43  S   UNL     1      31.618  20.944  -4.706  1.00  0.00     0.154 S
ATOM     44  O   UNL     1      30.938  20.773  -3.434  1.00  0.00    -0.229 OA
ATOM     45  O   UNL     1      32.727  21.874  -4.820  1.00  0.00    -0.229 OA
BRANCH  40  46
ATOM     46  C   UNL     1      28.581  20.657  -7.425  1.00  0.00     0.026 C
BRANCH  46  47
ATOM     47  C   UNL     1      28.259  22.144  -7.699  1.00  0.00     0.003 C
ATOM     48  G   UNL     1      27.356  22.271  -8.941  1.00  0.00     0.000 C
ENDBRANCH  46  47
ENDBRANCH  40  46
ENDBRANCH  37  38
ENDBRANCH  10  32
TORSDOF 2
ENDMDL
MODEL 7
REMARK VINA RESULT:      -7.6      1.266      1.722
REMARK SMILES NC(=O)c1cnc2c3c1[nH]c1cc(ccc13)-c1ccc(nn1)N1CCS(=O)(=O)C[C@H]1CCCC1(CC1)[C@H](C(F)(F)F)N2
REMARK SMILES IDX 4 1 5 2 6 3 7 4 8 5 9 6 10 7 11 8 12 9 13 10 14 11 15 12
REMARK SMILES IDX 16 13 2 15 1 16 3 17 42 20 37 22 34 23 35 24 36 25 33 26
REMARK SMILES IDX 38 28 39 29 40 30 41 31 17 32 18 33 22 34 19 35 21 36 20 37
REMARK SMILES IDX 23 38 24 39 30 40 25 41 29 42 26 43 27 44 28 45 31 46 32 47
REMARK H PARENT 10 14 1 18 1 19 42 21
REMARK Flexibility Score:   48.900
ROOT
ATOM      1  C   UNL     1      28.939   6.444  -6.645  1.00  0.00     0.082 A
ATOM      2  C   UNL     1      28.166   6.439  -7.805  1.00  0.00     0.129 A
ATOM      3  N   UNL     1      27.636   7.540  -8.403  1.00  0.00    -0.238 NA
ATOM      4  C   UNL     1      27.839   8.752  -7.842  1.00  0.00     0.136 A
ATOM      5  C   UNL     1      28.478   8.822  -6.583  1.00  0.00     0.051 A
ATOM      6  C   UNL     1      29.126   7.701  -6.067  1.00  0.00     0.065 A
ATOM      7  N   UNL     1      29.970   8.163  -5.075  1.00  0.00    -0.354 N
ATOM      8  C   UNL     1      29.845   9.530  -4.932  1.00  0.00     0.047 A
ATOM      9  C   UNL     1      30.646  10.488  -4.292  1.00  0.00     0.037 A
ATOM     10  C   UNL     1      30.282  11.846  -4.448  1.00  0.00     0.004 A
ATOM     11  C   UNL     1      29.013  12.160  -4.972  1.00  0.00     0.011 A
ATOM     12  C   UNL     1      28.241  11.198  -5.606  1.00  0.00     0.012 A
ATOM     13  C   UNL     1      28.743   9.897  -5.694  1.00  0.00     0.011 A
ATOM     14  H   UNL     1      30.690   7.607  -4.632  1.00  0.00     0.167 HD
ENDROOT
BRANCH   1  15
ATOM     15  C   UNL     1      29.519   5.197  -6.133  1.00  0.00     0.252 C
ATOM     16  N   UNL     1      29.302   4.909  -4.814  1.00  0.00    -0.365 N
ATOM     17  O   UNL     1      30.134   4.431  -6.861  1.00  0.00    -0.269 OA
ATOM     18  H   UNL     1      28.655   5.419  -4.230  1.00  0.00     0.159 HD
ATOM     19  H   UNL     1      29.675   4.034  -4.466  1.00  0.00     0.159 HD
ENDBRANCH   1  15
BRANCH   4  20
ATOM     20  N   UNL     1      27.607   9.886  -8.632  1.00  0.00    -0.358 N
ATOM     21  H   UNL     1      27.866  10.722  -8.110  1.00  0.00     0.162 HD
BRANCH  20  22
ATOM     22  C   UNL     1      26.200   9.940  -9.160  1.00  0.00     0.192 C
BRANCH  22  23
ATOM     23  C   UNL     1      26.112   9.525 -10.667  1.00  0.00    -0.001 C
ATOM     24  C   UNL     1      26.797  10.424 -11.690  1.00  0.00     0.010 C
ATOM     25  C   UNL     1      27.357   9.066 -11.424  1.00  0.00     0.010 C
BRANCH  23  26
ATOM     26  C   UNL     1      24.708   9.019 -11.068  1.00  0.00     0.009 C
ATOM     27  G   UNL     1      24.148   7.786 -10.337  1.00  0.00     0.000 C
ENDBRANCH  23  26
ENDBRANCH  22  23
BRANCH  22  28
ATOM     28  C   UNL     1      25.533  11.331  -8.902  1.00  0.00     0.409 C
ATOM     29  F   UNL     1      25.762  12.186  -9.929  1.00  0.00    -0.169 F
ATOM     30  F   UNL     1      24.190  11.234  -8.752  1.00  0.00    -0.169 F
ATOM     31  F   UNL     1      26.003  11.913  -7.775  1.00  0.00    -0.169 F
ENDBRANCH  22  28
ENDBRANCH  20  22
ENDBRANCH   4  20
BRANCH  10  32
ATOM     32  C   UNL     1      31.293  12.924  -4.423  1.00  0.00     0.093 A
ATOM     33  C   UNL     1      31.269  13.927  -3.464  1.00  0.00     0.035 A
ATOM     34  N   UNL     1      31.875  13.148  -5.625  1.00  0.00    -0.148 NA
ATOM     35  C   UNL     1      31.543  15.225  -3.874  1.00  0.00     0.051 A
ATOM     36  N   UNL     1      32.197  14.423  -6.002  1.00  0.00    -0.132 NA
ATOM     37  C   UNL     1      31.908  15.458  -5.190  1.00  0.00     0.151 A
BRANCH  37  38
ATOM     38  N   UNL     1      31.848  16.735  -5.714  1.00  0.00    -0.350 N
ATOM     39  C   UNL     1      32.984  17.207  -6.483  1.00  0.00     0.134 C
ATOM     40  C   UNL     1      30.527  17.381  -5.859  1.00  0.00     0.098 C
ATOM     41  C   UNL     1      33.454  18.515  -5.877  1.00  0.00     0.158 C
ATOM     42  C   UNL     1      30.701  18.811  -6.374  1.00  0.00     0.162 C
ATOM     43  S   UNL     1      32.078  19.618  -5.604  1.00  0.00     0.154 S
ATOM     44  O   UNL     1      31.809  19.691  -4.179  1.00  0.00    -0.229 OA
ATOM     45  O   UNL     1      32.334  20.830  -6.361  1.00  0.00    -0.229 OA
BRANCH  40  46
ATOM     46  C   UNL     1      29.613  16.610  -6.860  1.00  0.00     0.026 C
BRANCH  46  47
ATOM     47  C   UNL     1      28.501  15.746  -6.220  1.00  0.00     0.003 C
ATOM     48  G   UNL     1      27.923  14.770  -7.262  1.00  0.00     0.000 C
ENDBRANCH  46  47
ENDBRANCH  40  46
ENDBRANCH  37  38
ENDBRANCH  10  32
TORSDOF 2
ENDMDL
MODEL 8
REMARK VINA RESULT:      -7.5      4.317     10.669
REMARK SMILES NC(=O)c1cnc2c3c1[nH]c1cc(ccc13)-c1ccc(nn1)N1CCS(=O)(=O)C[C@H]1CCCC1(CC1)[C@H](C(F)(F)F)N2
REMARK SMILES IDX 4 1 5 2 6 3 7 4 8 5 9 6 10 7 11 8 12 9 13 10 14 11 15 12
REMARK SMILES IDX 16 13 2 15 1 16 3 17 42 20 37 22 34 23 35 24 36 25 33 26
REMARK SMILES IDX 38 28 39 29 40 30 41 31 17 32 18 33 22 34 19 35 21 36 20 37
REMARK SMILES IDX 23 38 24 39 30 40 25 41 29 42 26 43 27 44 28 45 31 46 32 47
REMARK H PARENT 10 14 1 18 1 19 42 21
REMARK Flexibility Score:   48.900
ROOT
ATOM      1  C   UNL     1      27.245  19.058  -6.949  1.00  0.00     0.082 A
ATOM      2  C   UNL     1      28.036  19.601  -5.938  1.00  0.00     0.129 A
ATOM      3  N   UNL     1      28.580  18.903  -4.904  1.00  0.00    -0.238 NA
ATOM      4  C   UNL     1      28.337  17.579  -4.807  1.00  0.00     0.136 A
ATOM      5  C   UNL     1      27.418  16.987  -5.705  1.00  0.00     0.051 A
ATOM      6  C   UNL     1      26.989  17.692  -6.828  1.00  0.00     0.065 A
ATOM      7  N   UNL     1      26.453  16.755  -7.692  1.00  0.00    -0.354 N
ATOM      8  C   UNL     1      26.504  15.496  -7.130  1.00  0.00     0.047 A
ATOM      9  C   UNL     1      26.358  14.212  -7.680  1.00  0.00     0.037 A
ATOM     10  C   UNL     1      26.597  13.111  -6.824  1.00  0.00     0.004 A
ATOM     11  C   UNL     1      26.679  13.326  -5.435  1.00  0.00     0.011 A
ATOM     12  C   UNL     1      26.828  14.602  -4.915  1.00  0.00     0.012 A
ATOM     13  C   UNL     1      26.873  15.680  -5.804  1.00  0.00     0.011 A
ATOM     14  H   UNL     1      26.210  16.941  -8.656  1.00  0.00     0.167 HD
ENDROOT
BRANCH   1  15
ATOM     15  C   UNL     1      26.774  19.898  -8.057  1.00  0.00     0.252 C
ATOM     16  N   UNL     1      27.278  19.627  -9.299  1.00  0.00    -0.365 N
ATOM     17  O   UNL     1      25.939  20.775  -7.884  1.00  0.00    -0.269 OA
ATOM     18  H   UNL     1      27.826  18.805  -9.511  1.00  0.00     0.159 HD
ATOM     19  H   UNL     1      26.931  20.185 -10.069  1.00  0.00     0.159 HD
ENDBRANCH   1  15
BRANCH   4  20
ATOM     20  N   UNL     1      29.168  16.820  -3.972  1.00  0.00    -0.358 N
ATOM     21  H   UNL     1      29.603  17.429  -3.282  1.00  0.00     0.162 HD
BRANCH  20  22
ATOM     22  C   UNL     1      30.167  16.005  -4.745  1.00  0.00     0.192 C
BRANCH  22  23
ATOM     23  C   UNL     1      30.738  14.811  -3.909  1.00  0.00    -0.001 C
ATOM     24  C   UNL     1      29.781  13.684  -3.538  1.00  0.00     0.010 C
ATOM     25  C   UNL     1      30.869  13.419  -4.525  1.00  0.00     0.010 C
BRANCH  23  26
ATOM     26  C   UNL     1      31.687  15.269  -2.778  1.00  0.00     0.009 C
ATOM     27  G   UNL     1      31.134  15.306  -1.341  1.00  0.00     0.000 C
ENDBRANCH  23  26
ENDBRANCH  22  23
BRANCH  22  28
ATOM     28  C   UNL     1      31.310  16.894  -5.338  1.00  0.00     0.409 C
ATOM     29  F   UNL     1      32.439  16.173  -5.546  1.00  0.00    -0.169 F
ATOM     30  F   UNL     1      30.963  17.447  -6.526  1.00  0.00    -0.169 F
ATOM     31  F   UNL     1      31.627  17.920  -4.516  1.00  0.00    -0.169 F
ENDBRANCH  22  28
ENDBRANCH  20  22
ENDBRANCH   4  20
BRANCH  10  32
ATOM     32  C   UNL     1      27.112  11.826  -7.345  1.00  0.00     0.093 A
ATOM     33  C   UNL     1      26.517  11.182  -8.420  1.00  0.00     0.035 A
ATOM     34  N   UNL     1      27.816  11.116  -6.432  1.00  0.00    -0.148 NA
ATOM     35  C   UNL     1      26.378   9.802  -8.355  1.00  0.00     0.051 A
ATOM     36  N   UNL     1      27.722   9.752  -6.408  1.00  0.00    -0.132 NA
ATOM     37  C   UNL     1      26.907   9.117  -7.272  1.00  0.00     0.151 A
BRANCH  37  38
ATOM     38  N   UNL     1      26.499   7.826  -6.997  1.00  0.00    -0.350 N
ATOM     39  C   UNL     1      25.100   7.611  -6.678  1.00  0.00     0.134 C
ATOM     40  C   UNL     1      27.343   6.703  -7.453  1.00  0.00     0.098 C
ATOM     41  C   UNL     1      25.025   6.892  -5.346  1.00  0.00     0.158 C
ATOM     42  C   UNL     1      26.750   5.378  -6.971  1.00  0.00     0.162 C
ATOM     43  S   UNL     1      26.142   5.501  -5.312  1.00  0.00     0.154 S
ATOM     44  O   UNL     1      27.266   5.822  -4.451  1.00  0.00    -0.229 OA
ATOM     45  O   UNL     1      25.350   4.310  -5.063  1.00  0.00    -0.229 OA
BRANCH  40  46
ATOM     46  C   UNL     1      27.449   6.653  -9.009  1.00  0.00     0.026 C
BRANCH  46  47
ATOM     47  C   UNL     1      26.192   6.135  -9.747  1.00  0.00     0.003 C
ATOM     48  G   UNL     1      25.834   7.079 -10.910  1.00  0.00     0.000 C
ENDBRANCH  46  47
ENDBRANCH  40  46
ENDBRANCH  37  38
ENDBRANCH  10  32
TORSDOF 2
ENDMDL
MODEL 9
REMARK VINA RESULT:      -7.5      5.626      9.680
REMARK SMILES NC(=O)c1cnc2c3c1[nH]c1cc(ccc13)-c1ccc(nn1)N1CCS(=O)(=O)C[C@H]1CCCC1(CC1)[C@H](C(F)(F)F)N2
REMARK SMILES IDX 4 1 5 2 6 3 7 4 8 5 9 6 10 7 11 8 12 9 13 10 14 11 15 12
REMARK SMILES IDX 16 13 2 15 1 16 3 17 42 20 37 22 34 23 35 24 36 25 33 26
REMARK SMILES IDX 38 28 39 29 40 30 41 31 17 32 18 33 22 34 19 35 21 36 20 37
REMARK SMILES IDX 23 38 24 39 30 40 25 41 29 42 26 43 27 44 28 45 31 46 32 47
REMARK H PARENT 10 14 1 18 1 19 42 21
REMARK Flexibility Score:   48.900
ROOT
ATOM      1  C   UNL     1      26.578  18.761  -8.737  1.00  0.00     0.082 A
ATOM      2  C   UNL     1      26.957  20.024  -8.284  1.00  0.00     0.129 A
ATOM      3  N   UNL     1      27.708  20.270  -7.176  1.00  0.00    -0.238 NA
ATOM      4  C   UNL     1      28.119  19.231  -6.418  1.00  0.00     0.136 A
ATOM      5  C   UNL     1      27.644  17.935  -6.724  1.00  0.00     0.051 A
ATOM      6  C   UNL     1      26.995  17.698  -7.935  1.00  0.00     0.065 A
ATOM      7  N   UNL     1      27.019  16.329  -8.125  1.00  0.00    -0.354 N
ATOM      8  C   UNL     1      27.630  15.703  -7.059  1.00  0.00     0.047 A
ATOM      9  C   UNL     1      28.144  14.407  -6.894  1.00  0.00     0.037 A
ATOM     10  C   UNL     1      28.828  14.130  -5.688  1.00  0.00     0.004 A
ATOM     11  C   UNL     1      28.720  15.034  -4.613  1.00  0.00     0.011 A
ATOM     12  C   UNL     1      28.215  16.312  -4.801  1.00  0.00     0.012 A
ATOM     13  C   UNL     1      27.792  16.677  -6.082  1.00  0.00     0.011 A
ATOM     14  H   UNL     1      26.772  15.869  -8.992  1.00  0.00     0.167 HD
ENDROOT
BRANCH   1  15
ATOM     15  C   UNL     1      25.828  18.615  -9.989  1.00  0.00     0.252 C
ATOM     16  N   UNL     1      25.930  19.633 -10.896  1.00  0.00    -0.365 N
ATOM     17  O   UNL     1      25.173  17.610 -10.228  1.00  0.00    -0.269 OA
ATOM     18  H   UNL     1      26.596  20.388 -10.814  1.00  0.00     0.159 HD
ATOM     19  H   UNL     1      25.438  19.520 -11.774  1.00  0.00     0.159 HD
ENDBRANCH   1  15
BRANCH   4  20
ATOM     20  N   UNL     1      29.163  19.455  -5.510  1.00  0.00    -0.358 N
ATOM     21  H   UNL     1      28.969  20.298  -4.972  1.00  0.00     0.162 HD
BRANCH  20  22
ATOM     22  C   UNL     1      30.508  19.485  -6.178  1.00  0.00     0.192 C
BRANCH  22  23
ATOM     23  C   UNL     1      31.397  18.257  -5.786  1.00  0.00    -0.001 C
ATOM     24  C   UNL     1      31.293  17.003  -6.648  1.00  0.00     0.010 C
ATOM     25  C   UNL     1      32.549  17.809  -6.684  1.00  0.00     0.010 C
BRANCH  23  26
ATOM     26  C   UNL     1      31.438  18.008  -4.262  1.00  0.00     0.009 C
ATOM     27  G   UNL     1      31.936  16.638  -3.766  1.00  0.00     0.000 C
ENDBRANCH  23  26
ENDBRANCH  22  23
BRANCH  22  28
ATOM     28  C   UNL     1      31.252  20.839  -5.933  1.00  0.00     0.409 C
ATOM     29  F   UNL     1      30.527  21.890  -6.385  1.00  0.00    -0.169 F
ATOM     30  F   UNL     1      31.497  21.057  -4.617  1.00  0.00    -0.169 F
ATOM     31  F   UNL     1      32.453  20.873  -6.556  1.00  0.00    -0.169 F
ENDBRANCH  22  28
ENDBRANCH  20  22
ENDBRANCH   4  20
BRANCH  10  32
ATOM     32  C   UNL     1      29.921  13.134  -5.631  1.00  0.00     0.093 A
ATOM     33  C   UNL     1      29.762  11.910  -4.998  1.00  0.00     0.035 A
ATOM     34  N   UNL     1      31.154  13.678  -5.760  1.00  0.00    -0.148 NA
ATOM     35  C   UNL     1      30.816  11.436  -4.228  1.00  0.00     0.051 A
ATOM     36  N   UNL     1      32.203  13.170  -5.044  1.00  0.00    -0.132 NA
ATOM     37  C   UNL     1      32.002  12.150  -4.188  1.00  0.00     0.151 A
BRANCH  37  38
ATOM     38  N   UNL     1      32.926  11.910  -3.189  1.00  0.00    -0.350 N
ATOM     39  C   UNL     1      33.060  12.901  -2.137  1.00  0.00     0.134 C
ATOM     40  C   UNL     1      33.398  10.526  -2.977  1.00  0.00     0.098 C
ATOM     41  C   UNL     1      34.517  13.312  -2.059  1.00  0.00     0.158 C
ATOM     42  C   UNL     1      34.472  10.504  -1.887  1.00  0.00     0.162 C
ATOM     43  S   UNL     1      35.580  11.879  -2.036  1.00  0.00     0.154 S
ATOM     44  O   UNL     1      36.251  11.770  -3.320  1.00  0.00    -0.229 OA
ATOM     45  O   UNL     1      36.356  11.930  -0.810  1.00  0.00    -0.229 OA
BRANCH  40  46
ATOM     46  C   UNL     1      32.239   9.580  -2.539  1.00  0.00     0.026 C
BRANCH  46  47
ATOM     47  C   UNL     1      32.282   8.152  -3.132  1.00  0.00     0.003 C
ATOM     48  G   UNL     1      31.093   7.939  -4.087  1.00  0.00     0.000 C
ENDBRANCH  46  47
ENDBRANCH  40  46
ENDBRANCH  37  38
ENDBRANCH  10  32
TORSDOF 2
ENDMDL
