MODEL 1
REMARK VINA RESULT:      -8.5      0.000      0.000
REMARK SMILES N#C[C@@H]1CCN(C(=O)[C@@H]2NC(=O)c3c[nH]c4ncc(nc34)[C@@H]3C[C@@H]3CSCC23CC3)C1
REMARK SMILES IDX 13 1 14 2 15 3 16 4 17 5 18 6 19 7 20 8 21 9 11 11 10 12
REMARK SMILES IDX 12 13 9 15 7 16 8 17 6 18 1 19 2 20 3 21 4 22 31 23 5 24
REMARK SMILES IDX 28 25 29 26 30 27 22 29 23 30 24 31 25 32 26 33 27 34
REMARK H PARENT 15 10 10 14
REMARK Flexibility Score:  106.900
ROOT
ATOM      1  C   UNL     1      33.016  10.761  -3.040  1.00  0.00     0.085 A
ATOM      2  C   UNL     1      33.825   9.813  -2.428  1.00  0.00     0.100 A
ATOM      3  N   UNL     1      33.262   8.570  -2.616  1.00  0.00    -0.344 N
ATOM      4  C   UNL     1      32.104   8.694  -3.332  1.00  0.00     0.156 A
ATOM      5  N   UNL     1      31.264   7.704  -3.685  1.00  0.00    -0.235 NA
ATOM      6  C   UNL     1      30.207   8.203  -4.389  1.00  0.00     0.137 A
ATOM      7  C   UNL     1      29.993   9.551  -4.724  1.00  0.00     0.063 A
ATOM      8  N   UNL     1      30.885  10.496  -4.343  1.00  0.00    -0.247 NA
ATOM      9  C   UNL     1      31.943  10.038  -3.626  1.00  0.00     0.120 A
ATOM     10  H   UNL     1      33.622   7.691  -2.273  1.00  0.00     0.168 HD
ENDROOT
BRANCH   1  11
ATOM     11  C   UNL     1      33.219  12.205  -3.045  1.00  0.00     0.255 C
ATOM     12  N   UNL     1      32.289  12.888  -3.785  1.00  0.00    -0.340 N
ATOM     13  O   UNL     1      34.123  12.755  -2.424  1.00  0.00    -0.269 OA
ATOM     14  H   UNL     1      31.642  12.339  -4.344  1.00  0.00     0.164 HD
BRANCH  12  15
ATOM     15  C   UNL     1      32.249  14.332  -3.893  1.00  0.00     0.178 C
BRANCH  15  16
ATOM     16  C   UNL     1      32.261  14.734  -5.392  1.00  0.00     0.245 C
ATOM     17  O   UNL     1      32.273  13.879  -6.286  1.00  0.00    -0.272 OA
BRANCH  16  18
ATOM     18  N   UNL     1      32.268  16.077  -5.709  1.00  0.00    -0.340 N
ATOM     19  N   UNL     1      33.856  20.483  -5.280  1.00  0.00    -0.198 NA
ATOM     20  C   UNL     1      33.448  19.502  -5.744  1.00  0.00     0.067 C
ATOM     21  C   UNL     1      32.932  18.261  -6.321  1.00  0.00     0.114 C
ATOM     22  C   UNL     1      31.405  18.183  -6.289  1.00  0.00     0.042 C
ATOM     23  C   UNL     1      33.348  17.036  -5.510  1.00  0.00     0.138 C
ATOM     24  C   UNL     1      31.144  16.689  -6.393  1.00  0.00     0.121 C
ENDBRANCH  16  18
ENDBRANCH  15  16
BRANCH  15  25
ATOM     25  C   UNL     1      31.011  14.852  -3.134  1.00  0.00     0.009 C
ATOM     26  C   UNL     1      31.232  15.222  -1.666  1.00  0.00     0.011 C
ATOM     27  C   UNL     1      31.056  16.307  -2.679  1.00  0.00     0.011 C
ATOM     28  G   UNL     1      29.664  14.356  -3.661  1.00  0.00     0.000 C
ENDBRANCH  15  25
ENDBRANCH  12  15
ENDBRANCH   1  11
BRANCH   7  29
ATOM     29  C   UNL     1      28.787   9.979  -5.548  1.00  0.00     0.044 C
ATOM     30  C   UNL     1      27.522   9.152  -5.442  1.00  0.00     0.015 C
ATOM     31  C   UNL     1      28.251   9.221  -6.759  1.00  0.00     0.009 C
BRANCH  31  32
ATOM     32  C   UNL     1      28.935   8.042  -7.381  1.00  0.00     0.073 C
BRANCH  32  33
ATOM     33  S   UNL     1      27.718   6.745  -7.765  1.00  0.00    -0.161 SA
BRANCH  33  34
ATOM     34  C   UNL     1      28.813   5.300  -7.838  1.00  0.00     0.079 C
ATOM     35  G   UNL     1      29.467   4.854  -6.530  1.00  0.00     0.000 C
ENDBRANCH  33  34
ENDBRANCH  32  33
ENDBRANCH  31  32
ENDBRANCH   7  29
TORSDOF 2
ENDMDL
MODEL 2
REMARK VINA RESULT:      -8.3      1.185      1.528
REMARK SMILES N#C[C@@H]1CCN(C(=O)[C@@H]2NC(=O)c3c[nH]c4ncc(nc34)[C@@H]3C[C@@H]3CSCC23CC3)C1
REMARK SMILES IDX 13 1 14 2 15 3 16 4 17 5 18 6 19 7 20 8 21 9 11 11 10 12
REMARK SMILES IDX 12 13 9 15 7 16 8 17 6 18 1 19 2 20 3 21 4 22 31 23 5 24
REMARK SMILES IDX 28 25 29 26 30 27 22 29 23 30 24 31 25 32 26 33 27 34
REMARK H PARENT 15 10 10 14
REMARK Flexibility Score:  106.900
ROOT
ATOM      1  C   UNL     1      32.817  10.607  -3.074  1.00  0.00     0.085 A
ATOM      2  C   UNL     1      33.512   9.659  -2.334  1.00  0.00     0.100 A
ATOM      3  N   UNL     1      32.950   8.423  -2.568  1.00  0.00    -0.344 N
ATOM      4  C   UNL     1      31.905   8.551  -3.440  1.00  0.00     0.156 A
ATOM      5  N   UNL     1      31.098   7.569  -3.882  1.00  0.00    -0.235 NA
ATOM      6  C   UNL     1      30.160   8.071  -4.737  1.00  0.00     0.137 A
ATOM      7  C   UNL     1      30.027   9.414  -5.130  1.00  0.00     0.063 A
ATOM      8  N   UNL     1      30.880  10.350  -4.652  1.00  0.00    -0.247 NA
ATOM      9  C   UNL     1      31.818   9.890  -3.785  1.00  0.00     0.120 A
ATOM     10  H   UNL     1      33.239   7.546  -2.158  1.00  0.00     0.168 HD
ENDROOT
BRANCH   1  11
ATOM     11  C   UNL     1      33.054  12.045  -3.085  1.00  0.00     0.255 C
ATOM     12  N   UNL     1      32.109  12.751  -3.784  1.00  0.00    -0.340 N
ATOM     13  O   UNL     1      33.995  12.573  -2.501  1.00  0.00    -0.269 OA
ATOM     14  H   UNL     1      31.427  12.219  -4.316  1.00  0.00     0.164 HD
BRANCH  12  15
ATOM     15  C   UNL     1      32.098  14.196  -3.888  1.00  0.00     0.178 C
BRANCH  15  16
ATOM     16  C   UNL     1      32.166  14.602  -5.385  1.00  0.00     0.245 C
ATOM     17  O   UNL     1      32.221  13.751  -6.279  1.00  0.00    -0.272 OA
BRANCH  16  18
ATOM     18  N   UNL     1      32.172  15.947  -5.697  1.00  0.00    -0.340 N
ATOM     19  N   UNL     1      33.766  20.351  -5.263  1.00  0.00    -0.198 NA
ATOM     20  C   UNL     1      33.355  19.371  -5.729  1.00  0.00     0.067 C
ATOM     21  C   UNL     1      32.835  18.132  -6.306  1.00  0.00     0.114 C
ATOM     22  C   UNL     1      31.308  18.055  -6.267  1.00  0.00     0.042 C
ATOM     23  C   UNL     1      33.254  16.905  -5.501  1.00  0.00     0.138 C
ATOM     24  C   UNL     1      31.045  16.561  -6.375  1.00  0.00     0.121 C
ENDBRANCH  16  18
ENDBRANCH  15  16
BRANCH  15  25
ATOM     25  C   UNL     1      30.846  14.736  -3.167  1.00  0.00     0.009 C
ATOM     26  C   UNL     1      31.031  15.110  -1.695  1.00  0.00     0.011 C
ATOM     27  C   UNL     1      30.898  16.192  -2.718  1.00  0.00     0.011 C
ATOM     28  G   UNL     1      29.509  14.255  -3.730  1.00  0.00     0.000 C
ENDBRANCH  15  25
ENDBRANCH  12  15
ENDBRANCH   1  11
BRANCH   7  29
ATOM     29  C   UNL     1      28.956   9.844  -6.123  1.00  0.00     0.044 C
ATOM     30  C   UNL     1      27.894  10.814  -5.650  1.00  0.00     0.015 C
ATOM     31  C   UNL     1      27.492   9.420  -6.057  1.00  0.00     0.009 C
BRANCH  31  32
ATOM     32  C   UNL     1      26.954   8.407  -5.093  1.00  0.00     0.073 C
BRANCH  32  33
ATOM     33  S   UNL     1      26.431   6.911  -5.986  1.00  0.00    -0.161 SA
BRANCH  33  34
ATOM     34  C   UNL     1      24.713   7.356  -6.363  1.00  0.00     0.079 C
ATOM     35  G   UNL     1      24.116   6.801  -7.657  1.00  0.00     0.000 C
ENDBRANCH  33  34
ENDBRANCH  32  33
ENDBRANCH  31  32
ENDBRANCH   7  29
TORSDOF 2
ENDMDL
MODEL 3
REMARK VINA RESULT:      -8.2      2.128      3.273
REMARK SMILES N#C[C@@H]1CCN(C(=O)[C@@H]2NC(=O)c3c[nH]c4ncc(nc34)[C@@H]3C[C@@H]3CSCC23CC3)C1
REMARK SMILES IDX 13 1 14 2 15 3 16 4 17 5 18 6 19 7 20 8 21 9 11 11 10 12
REMARK SMILES IDX 12 13 9 15 7 16 8 17 6 18 1 19 2 20 3 21 4 22 31 23 5 24
REMARK SMILES IDX 28 25 29 26 30 27 22 29 23 30 24 31 25 32 26 33 27 34
REMARK H PARENT 15 10 10 14
REMARK Flexibility Score:  106.900
ROOT
ATOM      1  C   UNL     1      33.649  13.407  -2.808  1.00  0.00     0.085 A
ATOM      2  C   UNL     1      35.000  13.641  -2.589  1.00  0.00     0.100 A
ATOM      3  N   UNL     1      35.629  12.430  -2.396  1.00  0.00    -0.344 N
ATOM      4  C   UNL     1      34.712  11.419  -2.481  1.00  0.00     0.156 A
ATOM      5  N   UNL     1      34.946  10.104  -2.320  1.00  0.00    -0.235 NA
ATOM      6  C   UNL     1      33.791   9.392  -2.468  1.00  0.00     0.137 A
ATOM      7  C   UNL     1      32.520   9.920  -2.756  1.00  0.00     0.063 A
ATOM      8  N   UNL     1      32.359  11.254  -2.916  1.00  0.00    -0.247 NA
ATOM      9  C   UNL     1      33.484  11.997  -2.758  1.00  0.00     0.120 A
ATOM     10  H   UNL     1      36.610  12.288  -2.205  1.00  0.00     0.168 HD
ENDROOT
BRANCH   1  11
ATOM     11  C   UNL     1      32.614  14.413  -3.013  1.00  0.00     0.255 C
ATOM     12  N   UNL     1      32.630  14.971  -4.265  1.00  0.00    -0.340 N
ATOM     13  O   UNL     1      31.793  14.712  -2.152  1.00  0.00    -0.269 OA
ATOM     14  H   UNL     1      33.409  14.733  -4.872  1.00  0.00     0.164 HD
BRANCH  12  15
ATOM     15  C   UNL     1      31.666  15.950  -4.723  1.00  0.00     0.178 C
BRANCH  15  16
ATOM     16  C   UNL     1      32.331  16.868  -5.783  1.00  0.00     0.245 C
ATOM     17  O   UNL     1      32.804  16.405  -6.827  1.00  0.00    -0.272 OA
BRANCH  16  18
ATOM     18  N   UNL     1      32.393  18.223  -5.527  1.00  0.00    -0.340 N
ATOM     19  N   UNL     1      34.695  22.271  -4.868  1.00  0.00    -0.198 NA
ATOM     20  C   UNL     1      33.893  21.504  -5.207  1.00  0.00     0.067 C
ATOM     21  C   UNL     1      32.887  20.532  -5.630  1.00  0.00     0.114 C
ATOM     22  C   UNL     1      31.816  20.287  -4.567  1.00  0.00     0.042 C
ATOM     23  C   UNL     1      33.483  19.141  -5.832  1.00  0.00     0.138 C
ATOM     24  C   UNL     1      31.258  18.928  -4.959  1.00  0.00     0.121 C
ENDBRANCH  16  18
ENDBRANCH  15  16
BRANCH  15  25
ATOM     25  C   UNL     1      30.421  15.209  -5.254  1.00  0.00     0.009 C
ATOM     26  C   UNL     1      29.076  15.671  -4.691  1.00  0.00     0.011 C
ATOM     27  C   UNL     1      29.450  16.032  -6.094  1.00  0.00     0.011 C
ATOM     28  G   UNL     1      30.665  13.775  -5.724  1.00  0.00     0.000 C
ENDBRANCH  15  25
ENDBRANCH  12  15
ENDBRANCH   1  11
BRANCH   7  29
ATOM     29  C   UNL     1      31.311   9.013  -2.935  1.00  0.00     0.044 C
ATOM     30  C   UNL     1      31.271   8.108  -4.148  1.00  0.00     0.015 C
ATOM     31  C   UNL     1      30.239   9.197  -4.005  1.00  0.00     0.009 C
BRANCH  31  32
ATOM     32  C   UNL     1      30.162  10.380  -4.922  1.00  0.00     0.073 C
BRANCH  32  33
ATOM     33  S   UNL     1      28.424  10.795  -5.262  1.00  0.00    -0.161 SA
BRANCH  33  34
ATOM     34  C   UNL     1      27.713   9.128  -5.340  1.00  0.00     0.079 C
ATOM     35  G   UNL     1      27.014   8.727  -6.640  1.00  0.00     0.000 C
ENDBRANCH  33  34
ENDBRANCH  32  33
ENDBRANCH  31  32
ENDBRANCH   7  29
TORSDOF 2
ENDMDL
MODEL 4
REMARK VINA RESULT:      -8.0      3.811      8.795
REMARK SMILES N#C[C@@H]1CCN(C(=O)[C@@H]2NC(=O)c3c[nH]c4ncc(nc34)[C@@H]3C[C@@H]3CSCC23CC3)C1
REMARK SMILES IDX 13 1 14 2 15 3 16 4 17 5 18 6 19 7 20 8 21 9 11 11 10 12
REMARK SMILES IDX 12 13 9 15 7 16 8 17 6 18 1 19 2 20 3 21 4 22 31 23 5 24
REMARK SMILES IDX 28 25 29 26 30 27 22 29 23 30 24 31 25 32 26 33 27 34
REMARK H PARENT 15 10 10 14
REMARK Flexibility Score:  106.900
ROOT
ATOM      1  C   UNL     1      27.970  14.662  -6.743  1.00  0.00     0.085 A
ATOM      2  C   UNL     1      27.289  14.102  -7.815  1.00  0.00     0.100 A
ATOM      3  N   UNL     1      26.793  15.120  -8.600  1.00  0.00    -0.344 N
ATOM      4  C   UNL     1      27.135  16.326  -8.055  1.00  0.00     0.156 A
ATOM      5  N   UNL     1      26.806  17.545  -8.522  1.00  0.00    -0.235 NA
ATOM      6  C   UNL     1      27.316  18.520  -7.715  1.00  0.00     0.137 A
ATOM      7  C   UNL     1      28.086  18.321  -6.556  1.00  0.00     0.063 A
ATOM      8  N   UNL     1      28.388  17.066  -6.148  1.00  0.00    -0.247 NA
ATOM      9  C   UNL     1      27.882  16.069  -6.917  1.00  0.00     0.120 A
ATOM     10  H   UNL     1      26.246  15.016  -9.442  1.00  0.00     0.168 HD
ENDROOT
BRANCH   1  11
ATOM     11  C   UNL     1      28.610  13.943  -5.648  1.00  0.00     0.255 C
ATOM     12  N   UNL     1      29.926  14.280  -5.465  1.00  0.00    -0.340 N
ATOM     13  O   UNL     1      28.018  13.132  -4.943  1.00  0.00    -0.269 OA
ATOM     14  H   UNL     1      30.355  14.884  -6.160  1.00  0.00     0.164 HD
BRANCH  12  15
ATOM     15  C   UNL     1      30.755  13.743  -4.406  1.00  0.00     0.178 C
BRANCH  15  16
ATOM     16  C   UNL     1      31.748  12.711  -5.004  1.00  0.00     0.245 C
ATOM     17  O   UNL     1      32.311  12.916  -6.085  1.00  0.00    -0.272 OA
BRANCH  16  18
ATOM     18  N   UNL     1      31.981  11.546  -4.303  1.00  0.00    -0.340 N
ATOM     19  N   UNL     1      34.703   8.588  -1.861  1.00  0.00    -0.198 NA
ATOM     20  C   UNL     1      33.782   9.202  -2.209  1.00  0.00     0.067 C
ATOM     21  C   UNL     1      32.627   9.979  -2.656  1.00  0.00     0.114 C
ATOM     22  C   UNL     1      31.822   9.270  -3.745  1.00  0.00     0.042 C
ATOM     23  C   UNL     1      33.041  11.281  -3.337  1.00  0.00     0.138 C
ATOM     24  C   UNL     1      31.076  10.416  -4.411  1.00  0.00     0.121 C
ENDBRANCH  16  18
ENDBRANCH  15  16
BRANCH  15  25
ATOM     25  C   UNL     1      31.456  14.912  -3.682  1.00  0.00     0.009 C
ATOM     26  C   UNL     1      30.681  15.544  -2.524  1.00  0.00     0.011 C
ATOM     27  C   UNL     1      31.858  14.669  -2.232  1.00  0.00     0.011 C
ATOM     28  G   UNL     1      32.452  15.703  -4.531  1.00  0.00     0.000 C
ENDBRANCH  15  25
ENDBRANCH  12  15
ENDBRANCH   1  11
BRANCH   7  29
ATOM     29  C   UNL     1      28.629  19.498  -5.758  1.00  0.00     0.044 C
ATOM     30  C   UNL     1      29.133  20.704  -6.521  1.00  0.00     0.015 C
ATOM     31  C   UNL     1      30.100  19.897  -5.693  1.00  0.00     0.009 C
BRANCH  31  32
ATOM     32  C   UNL     1      31.215  19.092  -6.288  1.00  0.00     0.073 C
BRANCH  32  33
ATOM     33  S   UNL     1      32.792  19.982  -6.113  1.00  0.00    -0.161 SA
BRANCH  33  34
ATOM     34  C   UNL     1      33.947  18.584  -6.144  1.00  0.00     0.079 C
ATOM     35  G   UNL     1      33.708  17.505  -7.202  1.00  0.00     0.000 C
ENDBRANCH  33  34
ENDBRANCH  32  33
ENDBRANCH  31  32
ENDBRANCH   7  29
TORSDOF 2
ENDMDL
MODEL 5
REMARK VINA RESULT:      -7.9      2.577      4.541
REMARK SMILES N#C[C@@H]1CCN(C(=O)[C@@H]2NC(=O)c3c[nH]c4ncc(nc34)[C@@H]3C[C@@H]3CSCC23CC3)C1
REMARK SMILES IDX 13 1 14 2 15 3 16 4 17 5 18 6 19 7 20 8 21 9 11 11 10 12
REMARK SMILES IDX 12 13 9 15 7 16 8 17 6 18 1 19 2 20 3 21 4 22 31 23 5 24
REMARK SMILES IDX 28 25 29 26 30 27 22 29 23 30 24 31 25 32 26 33 27 34
REMARK H PARENT 15 10 10 14
REMARK Flexibility Score:  106.900
ROOT
ATOM      1  C   UNL     1      28.953  12.846  -5.297  1.00  0.00     0.085 A
ATOM      2  C   UNL     1      27.621  13.238  -5.329  1.00  0.00     0.100 A
ATOM      3  N   UNL     1      26.831  12.110  -5.285  1.00  0.00    -0.344 N
ATOM      4  C   UNL     1      27.624  10.997  -5.229  1.00  0.00     0.156 A
ATOM      5  N   UNL     1      27.214   9.716  -5.203  1.00  0.00    -0.235 NA
ATOM      6  C   UNL     1      28.286   8.872  -5.156  1.00  0.00     0.137 A
ATOM      7  C   UNL     1      29.640   9.249  -5.129  1.00  0.00     0.063 A
ATOM      8  N   UNL     1      29.981  10.559  -5.148  1.00  0.00    -0.247 NA
ATOM      9  C   UNL     1      28.940  11.429  -5.213  1.00  0.00     0.120 A
ATOM     10  H   UNL     1      25.822  12.084  -5.305  1.00  0.00     0.168 HD
ENDROOT
BRANCH   1  11
ATOM     11  C   UNL     1      30.118  13.719  -5.370  1.00  0.00     0.255 C
ATOM     12  N   UNL     1      29.913  14.957  -4.819  1.00  0.00    -0.340 N
ATOM     13  O   UNL     1      31.188  13.368  -5.857  1.00  0.00    -0.269 OA
ATOM     14  H   UNL     1      28.966  15.190  -4.533  1.00  0.00     0.164 HD
BRANCH  12  15
ATOM     15  C   UNL     1      30.938  15.976  -4.721  1.00  0.00     0.178 C
BRANCH  15  16
ATOM     16  C   UNL     1      30.273  17.378  -4.757  1.00  0.00     0.245 C
ATOM     17  O   UNL     1      29.063  17.520  -4.545  1.00  0.00    -0.272 OA
BRANCH  16  18
ATOM     18  N   UNL     1      31.066  18.470  -5.044  1.00  0.00    -0.340 N
ATOM     19  N   UNL     1      34.948  20.510  -6.744  1.00  0.00    -0.198 NA
ATOM     20  C   UNL     1      33.836  20.312  -6.478  1.00  0.00     0.067 C
ATOM     21  C   UNL     1      32.438  20.055  -6.136  1.00  0.00     0.114 C
ATOM     22  C   UNL     1      32.062  20.577  -4.749  1.00  0.00     0.042 C
ATOM     23  C   UNL     1      32.141  18.561  -6.025  1.00  0.00     0.138 C
ATOM     24  C   UNL     1      30.833  19.751  -4.403  1.00  0.00     0.121 C
ENDBRANCH  16  18
ENDBRANCH  15  16
BRANCH  15  25
ATOM     25  C   UNL     1      31.764  15.727  -3.442  1.00  0.00     0.009 C
ATOM     26  C   UNL     1      31.140  16.220  -2.135  1.00  0.00     0.011 C
ATOM     27  C   UNL     1      31.171  14.754  -2.430  1.00  0.00     0.011 C
ATOM     28  G   UNL     1      33.277  15.642  -3.648  1.00  0.00     0.000 C
ENDBRANCH  15  25
ENDBRANCH  12  15
ENDBRANCH   1  11
BRANCH   7  29
ATOM     29  C   UNL     1      30.747   8.209  -5.039  1.00  0.00     0.044 C
ATOM     30  C   UNL     1      30.499   6.975  -4.197  1.00  0.00     0.015 C
ATOM     31  C   UNL     1      31.585   7.939  -3.793  1.00  0.00     0.009 C
BRANCH  31  32
ATOM     32  C   UNL     1      31.524   8.767  -2.545  1.00  0.00     0.073 C
BRANCH  32  33
ATOM     33  S   UNL     1      33.204   9.211  -2.007  1.00  0.00    -0.161 SA
BRANCH  33  34
ATOM     34  C   UNL     1      33.367  10.835  -2.798  1.00  0.00     0.079 C
ATOM     35  G   UNL     1      34.660  11.611  -2.540  1.00  0.00     0.000 C
ENDBRANCH  33  34
ENDBRANCH  32  33
ENDBRANCH  31  32
ENDBRANCH   7  29
TORSDOF 2
ENDMDL
MODEL 6
REMARK VINA RESULT:      -7.8      3.324      8.235
REMARK SMILES N#C[C@@H]1CCN(C(=O)[C@@H]2NC(=O)c3c[nH]c4ncc(nc34)[C@@H]3C[C@@H]3CSCC23CC3)C1
REMARK SMILES IDX 13 1 14 2 15 3 16 4 17 5 18 6 19 7 20 8 21 9 11 11 10 12
REMARK SMILES IDX 12 13 9 15 7 16 8 17 6 18 1 19 2 20 3 21 4 22 31 23 5 24
REMARK SMILES IDX 28 25 29 26 30 27 22 29 23 30 24 31 25 32 26 33 27 34
REMARK H PARENT 15 10 10 14
REMARK Flexibility Score:  106.900
ROOT
ATOM      1  C   UNL     1      31.731  17.659  -5.886  1.00  0.00     0.085 A
ATOM      2  C   UNL     1      32.653  18.697  -5.865  1.00  0.00     0.100 A
ATOM      3  N   UNL     1      31.984  19.882  -6.085  1.00  0.00    -0.344 N
ATOM      4  C   UNL     1      30.650  19.631  -6.253  1.00  0.00     0.156 A
ATOM      5  N   UNL     1      29.687  20.533  -6.515  1.00  0.00    -0.235 NA
ATOM      6  C   UNL     1      28.473  19.917  -6.625  1.00  0.00     0.137 A
ATOM      7  C   UNL     1      28.224  18.541  -6.484  1.00  0.00     0.063 A
ATOM      8  N   UNL     1      29.240  17.691  -6.211  1.00  0.00    -0.247 NA
ATOM      9  C   UNL     1      30.466  18.265  -6.111  1.00  0.00     0.120 A
ATOM     10  H   UNL     1      32.395  20.802  -6.135  1.00  0.00     0.168 HD
ENDROOT
BRANCH   1  11
ATOM     11  C   UNL     1      32.019  16.238  -5.740  1.00  0.00     0.255 C
ATOM     12  N   UNL     1      31.349  15.645  -4.700  1.00  0.00    -0.340 N
ATOM     13  O   UNL     1      32.771  15.627  -6.492  1.00  0.00    -0.269 OA
ATOM     14  H   UNL     1      30.830  16.253  -4.073  1.00  0.00     0.164 HD
BRANCH  12  15
ATOM     15  C   UNL     1      31.428  14.232  -4.392  1.00  0.00     0.178 C
BRANCH  15  16
ATOM     16  C   UNL     1      32.073  14.048  -2.993  1.00  0.00     0.245 C
ATOM     17  O   UNL     1      31.746  14.761  -2.037  1.00  0.00    -0.272 OA
BRANCH  16  18
ATOM     18  N   UNL     1      33.035  13.070  -2.840  1.00  0.00    -0.340 N
ATOM     19  N   UNL     1      34.452   8.684  -1.905  1.00  0.00    -0.198 NA
ATOM     20  C   UNL     1      34.377   9.736  -2.388  1.00  0.00     0.067 C
ATOM     21  C   UNL     1      34.277  11.065  -2.990  1.00  0.00     0.114 C
ATOM     22  C   UNL     1      35.097  12.117  -2.243  1.00  0.00     0.042 C
ATOM     23  C   UNL     1      32.858  11.625  -2.909  1.00  0.00     0.138 C
ATOM     24  C   UNL     1      34.432  13.419  -2.662  1.00  0.00     0.121 C
ENDBRANCH  16  18
ENDBRANCH  15  16
BRANCH  15  25
ATOM     25  C   UNL     1      30.016  13.622  -4.497  1.00  0.00     0.009 C
ATOM     26  C   UNL     1      29.908  12.312  -5.281  1.00  0.00     0.011 C
ATOM     27  C   UNL     1      29.799  12.288  -3.790  1.00  0.00     0.011 C
ATOM     28  G   UNL     1      28.863  14.622  -4.409  1.00  0.00     0.000 C
ENDBRANCH  15  25
ENDBRANCH  12  15
ENDBRANCH   1  11
BRANCH   7  29
ATOM     29  C   UNL     1      26.813  17.979  -6.595  1.00  0.00     0.044 C
ATOM     30  C   UNL     1      26.645  16.475  -6.608  1.00  0.00     0.015 C
ATOM     31  C   UNL     1      26.256  17.272  -7.826  1.00  0.00     0.009 C
BRANCH  31  32
ATOM     32  C   UNL     1      26.976  17.173  -9.136  1.00  0.00     0.073 C
BRANCH  32  33
ATOM     33  S   UNL     1      27.223  15.427  -9.583  1.00  0.00    -0.161 SA
BRANCH  33  34
ATOM     34  C   UNL     1      28.033  15.628 -11.194  1.00  0.00     0.079 C
ATOM     35  G   UNL     1      27.729  16.907 -11.974  1.00  0.00     0.000 C
ENDBRANCH  33  34
ENDBRANCH  32  33
ENDBRANCH  31  32
ENDBRANCH   7  29
TORSDOF 2
ENDMDL
MODEL 7
REMARK VINA RESULT:      -7.8      2.740      4.943
REMARK SMILES N#C[C@@H]1CCN(C(=O)[C@@H]2NC(=O)c3c[nH]c4ncc(nc34)[C@@H]3C[C@@H]3CSCC23CC3)C1
REMARK SMILES IDX 13 1 14 2 15 3 16 4 17 5 18 6 19 7 20 8 21 9 11 11 10 12
REMARK SMILES IDX 12 13 9 15 7 16 8 17 6 18 1 19 2 20 3 21 4 22 31 23 5 24
REMARK SMILES IDX 28 25 29 26 30 27 22 29 23 30 24 31 25 32 26 33 27 34
REMARK H PARENT 15 10 10 14
REMARK Flexibility Score:  106.900
ROOT
ATOM      1  C   UNL     1      28.921  11.640  -4.847  1.00  0.00     0.085 A
ATOM      2  C   UNL     1      27.854  11.272  -5.656  1.00  0.00     0.100 A
ATOM      3  N   UNL     1      27.933   9.917  -5.895  1.00  0.00    -0.344 N
ATOM      4  C   UNL     1      29.030   9.403  -5.261  1.00  0.00     0.156 A
ATOM      5  N   UNL     1      29.450   8.124  -5.286  1.00  0.00    -0.235 NA
ATOM      6  C   UNL     1      30.586   7.981  -4.543  1.00  0.00     0.137 A
ATOM      7  C   UNL     1      31.249   8.996  -3.833  1.00  0.00     0.063 A
ATOM      8  N   UNL     1      30.765  10.260  -3.844  1.00  0.00    -0.247 NA
ATOM      9  C   UNL     1      29.644  10.446  -4.588  1.00  0.00     0.120 A
ATOM     10  H   UNL     1      27.299   9.370  -6.460  1.00  0.00     0.168 HD
ENDROOT
BRANCH   1  11
ATOM     11  C   UNL     1      29.242  12.987  -4.391  1.00  0.00     0.255 C
ATOM     12  N   UNL     1      29.310  13.908  -5.404  1.00  0.00    -0.340 N
ATOM     13  O   UNL     1      29.409  13.271  -3.210  1.00  0.00    -0.269 OA
ATOM     14  H   UNL     1      29.258  13.559  -6.357  1.00  0.00     0.164 HD
BRANCH  12  15
ATOM     15  C   UNL     1      29.557  15.320  -5.194  1.00  0.00     0.178 C
BRANCH  15  16
ATOM     16  C   UNL     1      30.995  15.665  -5.666  1.00  0.00     0.245 C
ATOM     17  O   UNL     1      31.749  14.794  -6.115  1.00  0.00    -0.272 OA
BRANCH  16  18
ATOM     18  N   UNL     1      31.420  16.973  -5.563  1.00  0.00    -0.340 N
ATOM     19  N   UNL     1      34.166  20.602  -6.752  1.00  0.00    -0.198 NA
ATOM     20  C   UNL     1      33.236  19.983  -6.441  1.00  0.00     0.067 C
ATOM     21  C   UNL     1      32.069  19.194  -6.048  1.00  0.00     0.114 C
ATOM     22  C   UNL     1      31.958  19.015  -4.534  1.00  0.00     0.042 C
ATOM     23  C   UNL     1      32.155  17.755  -6.551  1.00  0.00     0.138 C
ATOM     24  C   UNL     1      31.080  17.780  -4.405  1.00  0.00     0.121 C
ENDBRANCH  16  18
ENDBRANCH  15  16
BRANCH  15  25
ATOM     25  C   UNL     1      28.466  16.129  -5.926  1.00  0.00     0.009 C
ATOM     26  C   UNL     1      27.097  16.176  -5.244  1.00  0.00     0.011 C
ATOM     27  C   UNL     1      27.972  17.389  -5.224  1.00  0.00     0.011 C
ATOM     28  G   UNL     1      28.631  16.226  -7.443  1.00  0.00     0.000 C
ENDBRANCH  15  25
ENDBRANCH  12  15
ENDBRANCH   1  11
BRANCH   7  29
ATOM     29  C   UNL     1      32.494   8.700  -3.009  1.00  0.00     0.044 C
ATOM     30  C   UNL     1      32.695   9.470  -1.720  1.00  0.00     0.015 C
ATOM     31  C   UNL     1      33.676   9.651  -2.850  1.00  0.00     0.009 C
BRANCH  31  32
ATOM     32  C   UNL     1      33.827  10.936  -3.606  1.00  0.00     0.073 C
BRANCH  32  33
ATOM     33  S   UNL     1      33.617  12.351  -2.483  1.00  0.00    -0.161 SA
BRANCH  33  34
ATOM     34  C   UNL     1      35.351  12.673  -2.057  1.00  0.00     0.079 C
ATOM     35  G   UNL     1      36.018  11.710  -1.074  1.00  0.00     0.000 C
ENDBRANCH  33  34
ENDBRANCH  32  33
ENDBRANCH  31  32
ENDBRANCH   7  29
TORSDOF 2
ENDMDL
MODEL 8
REMARK VINA RESULT:      -7.8      0.952      1.278
REMARK SMILES N#C[C@@H]1CCN(C(=O)[C@@H]2NC(=O)c3c[nH]c4ncc(nc34)[C@@H]3C[C@@H]3CSCC23CC3)C1
REMARK SMILES IDX 13 1 14 2 15 3 16 4 17 5 18 6 19 7 20 8 21 9 11 11 10 12
REMARK SMILES IDX 12 13 9 15 7 16 8 17 6 18 1 19 2 20 3 21 4 22 31 23 5 24
REMARK SMILES IDX 28 25 29 26 30 27 22 29 23 30 24 31 25 32 26 33 27 34
REMARK H PARENT 15 10 10 14
REMARK Flexibility Score:  106.900
ROOT
ATOM      1  C   UNL     1      33.007  10.654  -3.000  1.00  0.00     0.085 A
ATOM      2  C   UNL     1      33.815   9.694  -2.406  1.00  0.00     0.100 A
ATOM      3  N   UNL     1      33.266   8.452  -2.643  1.00  0.00    -0.344 N
ATOM      4  C   UNL     1      32.119   8.590  -3.373  1.00  0.00     0.156 A
ATOM      5  N   UNL     1      31.293   7.604  -3.772  1.00  0.00    -0.235 NA
ATOM      6  C   UNL     1      30.243   8.117  -4.477  1.00  0.00     0.137 A
ATOM      7  C   UNL     1      30.022   9.474  -4.771  1.00  0.00     0.063 A
ATOM      8  N   UNL     1      30.900  10.413  -4.346  1.00  0.00    -0.247 NA
ATOM      9  C   UNL     1      31.950   9.942  -3.626  1.00  0.00     0.120 A
ATOM     10  H   UNL     1      33.629   7.566  -2.323  1.00  0.00     0.168 HD
ENDROOT
BRANCH   1  11
ATOM     11  C   UNL     1      33.197  12.099  -2.956  1.00  0.00     0.255 C
ATOM     12  N   UNL     1      32.205  12.803  -3.587  1.00  0.00    -0.340 N
ATOM     13  O   UNL     1      34.143  12.632  -2.384  1.00  0.00    -0.269 OA
ATOM     14  H   UNL     1      31.520  12.272  -4.117  1.00  0.00     0.164 HD
BRANCH  12  15
ATOM     15  C   UNL     1      32.144  14.250  -3.626  1.00  0.00     0.178 C
BRANCH  15  16
ATOM     16  C   UNL     1      32.027  14.718  -5.101  1.00  0.00     0.245 C
ATOM     17  O   UNL     1      32.087  13.913  -6.037  1.00  0.00    -0.272 OA
BRANCH  16  18
ATOM     18  N   UNL     1      31.864  16.067  -5.347  1.00  0.00    -0.340 N
ATOM     19  N   UNL     1      29.421  19.796  -6.844  1.00  0.00    -0.198 NA
ATOM     20  C   UNL     1      30.129  19.125  -6.216  1.00  0.00     0.067 C
ATOM     21  C   UNL     1      31.021  18.273  -5.431  1.00  0.00     0.114 C
ATOM     22  C   UNL     1      32.450  18.253  -5.973  1.00  0.00     0.042 C
ATOM     23  C   UNL     1      30.615  16.803  -5.500  1.00  0.00     0.138 C
ATOM     24  C   UNL     1      33.008  16.959  -5.401  1.00  0.00     0.121 C
ENDBRANCH  16  18
ENDBRANCH  15  16
BRANCH  15  25
ATOM     25  C   UNL     1      30.971  14.721  -2.743  1.00  0.00     0.009 C
ATOM     26  C   UNL     1      31.319  15.064  -1.293  1.00  0.00     0.011 C
ATOM     27  C   UNL     1      31.024  16.166  -2.259  1.00  0.00     0.011 C
ATOM     28  G   UNL     1      29.593  14.202  -3.155  1.00  0.00     0.000 C
ENDBRANCH  15  25
ENDBRANCH  12  15
ENDBRANCH   1  11
BRANCH   7  29
ATOM     29  C   UNL     1      28.826   9.917  -5.600  1.00  0.00     0.044 C
ATOM     30  C   UNL     1      27.595   9.036  -5.603  1.00  0.00     0.015 C
ATOM     31  C   UNL     1      28.361   9.238  -6.885  1.00  0.00     0.009 C
BRANCH  31  32
ATOM     32  C   UNL     1      29.113   8.140  -7.573  1.00  0.00     0.073 C
BRANCH  32  33
ATOM     33  S   UNL     1      27.958   6.856  -8.147  1.00  0.00    -0.161 SA
BRANCH  33  34
ATOM     34  C   UNL     1      28.910   5.369  -7.728  1.00  0.00     0.079 C
ATOM     35  G   UNL     1      29.199   5.119  -6.247  1.00  0.00     0.000 C
ENDBRANCH  33  34
ENDBRANCH  32  33
ENDBRANCH  31  32
ENDBRANCH   7  29
TORSDOF 2
ENDMDL
MODEL 9
REMARK VINA RESULT:      -7.7      4.120      9.340
REMARK SMILES N#C[C@@H]1CCN(C(=O)[C@@H]2NC(=O)c3c[nH]c4ncc(nc34)[C@@H]3C[C@@H]3CSCC23CC3)C1
REMARK SMILES IDX 13 1 14 2 15 3 16 4 17 5 18 6 19 7 20 8 21 9 11 11 10 12
REMARK SMILES IDX 12 13 9 15 7 16 8 17 6 18 1 19 2 20 3 21 4 22 31 23 5 24
REMARK SMILES IDX 28 25 29 26 30 27 22 29 23 30 24 31 25 32 26 33 27 34
REMARK H PARENT 15 10 10 14
REMARK Flexibility Score:  106.900
ROOT
ATOM      1  C   UNL     1      32.438  18.280  -5.823  1.00  0.00     0.085 A
ATOM      2  C   UNL     1      33.595  19.041  -5.717  1.00  0.00     0.100 A
ATOM      3  N   UNL     1      33.253  20.373  -5.806  1.00  0.00    -0.344 N
ATOM      4  C   UNL     1      31.901  20.489  -5.973  1.00  0.00     0.156 A
ATOM      5  N   UNL     1      31.202  21.628  -6.126  1.00  0.00    -0.235 NA
ATOM      6  C   UNL     1      29.872  21.357  -6.274  1.00  0.00     0.137 A
ATOM      7  C   UNL     1      29.278  20.084  -6.266  1.00  0.00     0.063 A
ATOM      8  N   UNL     1      30.041  18.979  -6.097  1.00  0.00    -0.247 NA
ATOM      9  C   UNL     1      31.372  19.208  -5.964  1.00  0.00     0.120 A
ATOM     10  H   UNL     1      33.887  21.158  -5.773  1.00  0.00     0.168 HD
ENDROOT
BRANCH   1  11
ATOM     11  C   UNL     1      32.352  16.825  -5.824  1.00  0.00     0.255 C
ATOM     12  N   UNL     1      31.981  16.296  -4.615  1.00  0.00    -0.340 N
ATOM     13  O   UNL     1      32.568  16.142  -6.820  1.00  0.00    -0.269 OA
ATOM     14  H   UNL     1      31.923  16.932  -3.825  1.00  0.00     0.164 HD
BRANCH  12  15
ATOM     15  C   UNL     1      31.772  14.881  -4.384  1.00  0.00     0.178 C
BRANCH  15  16
ATOM     16  C   UNL     1      32.294  14.510  -2.971  1.00  0.00     0.245 C
ATOM     17  O   UNL     1      31.972  15.167  -1.975  1.00  0.00    -0.272 OA
BRANCH  16  18
ATOM     18  N   UNL     1      33.141  13.427  -2.851  1.00  0.00    -0.340 N
ATOM     19  N   UNL     1      34.063   8.886  -2.043  1.00  0.00    -0.198 NA
ATOM     20  C   UNL     1      34.104   9.953  -2.498  1.00  0.00     0.067 C
ATOM     21  C   UNL     1      34.151  11.300  -3.063  1.00  0.00     0.114 C
ATOM     22  C   UNL     1      35.086  12.234  -2.294  1.00  0.00     0.042 C
ATOM     23  C   UNL     1      32.804  12.012  -2.957  1.00  0.00     0.138 C
ATOM     24  C   UNL     1      34.570  13.613  -2.673  1.00  0.00     0.121 C
ENDBRANCH  16  18
ENDBRANCH  15  16
BRANCH  15  25
ATOM     25  C   UNL     1      30.276  14.561  -4.584  1.00  0.00     0.009 C
ATOM     26  C   UNL     1      29.963  13.300  -5.391  1.00  0.00     0.011 C
ATOM     27  C   UNL     1      29.757  13.296  -3.910  1.00  0.00     0.011 C
ATOM     28  G   UNL     1      29.339  15.770  -4.554  1.00  0.00     0.000 C
ENDBRANCH  15  25
ENDBRANCH  12  15
ENDBRANCH   1  11
BRANCH   7  29
ATOM     29  C   UNL     1      27.772  19.915  -6.405  1.00  0.00     0.044 C
ATOM     30  C   UNL     1      27.258  18.740  -7.212  1.00  0.00     0.015 C
ATOM     31  C   UNL     1      26.989  20.143  -7.694  1.00  0.00     0.009 C
BRANCH  31  32
ATOM     32  C   UNL     1      27.583  20.707  -8.949  1.00  0.00     0.073 C
BRANCH  32  33
ATOM     33  S   UNL     1      26.264  21.288 -10.059  1.00  0.00    -0.161 SA
BRANCH  33  34
ATOM     34  C   UNL     1      25.658  19.697 -10.686  1.00  0.00     0.079 C
ATOM     35  G   UNL     1      24.320  19.196 -10.141  1.00  0.00     0.000 C
ENDBRANCH  33  34
ENDBRANCH  32  33
ENDBRANCH  31  32
ENDBRANCH   7  29
TORSDOF 2
ENDMDL
