MODEL 1
REMARK VINA RESULT:      -8.2      0.000      0.000
REMARK SMILES N#CC1CN(C(=O)[C@@H]2NC(=O)c3c[nH]c4ncc(nc34)[C@]3(CCSCC[C@]24CC4)CC3)C1
REMARK SMILES IDX 12 1 13 2 14 3 15 4 16 5 17 6 18 7 19 8 20 9 10 11 9 12
REMARK SMILES IDX 11 13 8 15 6 16 1 17 2 18 3 19 4 20 32 21 5 22 7 23 27 24
REMARK SMILES IDX 28 25 29 26 26 27 21 29 30 30 31 31 22 32 23 33 24 34 25 35
REMARK H PARENT 14 10 9 14
REMARK Flexibility Score:   64.900
ROOT
ATOM      1  C   UNL     1      34.574  12.356  -2.428  1.00  0.00     0.085 A
ATOM      2  C   UNL     1      35.667  12.031  -1.634  1.00  0.00     0.100 A
ATOM      3  N   UNL     1      35.643  10.678  -1.387  1.00  0.00    -0.344 N
ATOM      4  C   UNL     1      34.557  10.121  -2.000  1.00  0.00     0.156 A
ATOM      5  N   UNL     1      34.181   8.830  -1.955  1.00  0.00    -0.235 NA
ATOM      6  C   UNL     1      33.030   8.639  -2.659  1.00  0.00     0.138 A
ATOM      7  C   UNL     1      32.323   9.622  -3.373  1.00  0.00     0.066 A
ATOM      8  N   UNL     1      32.772  10.904  -3.399  1.00  0.00    -0.246 NA
ATOM      9  C   UNL     1      33.895  11.135  -2.675  1.00  0.00     0.120 A
ATOM     10  H   UNL     1      36.304  10.158  -0.827  1.00  0.00     0.168 HD
ENDROOT
BRANCH   1  11
ATOM     11  C   UNL     1      34.207  13.688  -2.888  1.00  0.00     0.255 C
ATOM     12  N   UNL     1      32.909  13.788  -3.324  1.00  0.00    -0.340 N
ATOM     13  O   UNL     1      34.998  14.625  -2.893  1.00  0.00    -0.269 OA
ATOM     14  H   UNL     1      32.337  12.946  -3.320  1.00  0.00     0.164 HD
BRANCH  12  15
ATOM     15  C   UNL     1      32.307  15.018  -3.805  1.00  0.00     0.178 C
BRANCH  15  16
ATOM     16  C   UNL     1      32.591  15.265  -5.313  1.00  0.00     0.245 C
ATOM     17  N   UNL     1      34.615  20.301  -6.982  1.00  0.00    -0.198 NA
ATOM     18  C   UNL     1      33.833  19.478  -6.741  1.00  0.00     0.069 C
ATOM     19  C   UNL     1      32.863  18.456  -6.438  1.00  0.00     0.131 C
ATOM     20  C   UNL     1      33.164  17.065  -7.022  1.00  0.00     0.140 C
ATOM     21  C   UNL     1      32.986  17.825  -5.038  1.00  0.00     0.140 C
ATOM     22  N   UNL     1      32.889  16.543  -5.698  1.00  0.00    -0.338 N
ATOM     23  O   UNL     1      32.440  14.385  -6.165  1.00  0.00    -0.272 OA
ENDBRANCH  15  16
BRANCH  15  24
ATOM     24  C   UNL     1      30.808  14.995  -3.461  1.00  0.00     0.000 C
ATOM     25  C   UNL     1      30.330  15.887  -2.322  1.00  0.00     0.010 C
ATOM     26  C   UNL     1      30.033  16.277  -3.735  1.00  0.00     0.010 C
BRANCH  24  27
ATOM     27  C   UNL     1      30.068  13.675  -3.720  1.00  0.00     0.020 C
ATOM     28  G   UNL     1      29.016  13.772  -4.828  1.00  0.00     0.000 C
ENDBRANCH  24  27
ENDBRANCH  15  24
ENDBRANCH  12  15
ENDBRANCH   1  11
BRANCH   7  29
ATOM     29  C   UNL     1      31.000   9.362  -4.106  1.00  0.00     0.015 C
ATOM     30  C   UNL     1      29.810  10.202  -3.661  1.00  0.00     0.014 C
ATOM     31  C   UNL     1      30.370  10.380  -5.041  1.00  0.00     0.014 C
BRANCH  29  32
ATOM     32  C   UNL     1      30.714   7.882  -4.376  1.00  0.00     0.024 C
BRANCH  32  33
ATOM     33  C   UNL     1      29.898   7.670  -5.652  1.00  0.00     0.070 C
BRANCH  33  34
ATOM     34  S   UNL     1      28.930   6.124  -5.590  1.00  0.00    -0.162 SA
BRANCH  34  35
ATOM     35  C   UNL     1      27.374   6.691  -6.377  1.00  0.00     0.070 C
ATOM     36  G   UNL     1      26.994   5.799  -7.562  1.00  0.00     0.000 C
ENDBRANCH  34  35
ENDBRANCH  33  34
ENDBRANCH  32  33
ENDBRANCH  29  32
ENDBRANCH   7  29
TORSDOF 1
ENDMDL
MODEL 2
REMARK VINA RESULT:      -8.1      1.786      3.106
REMARK SMILES N#CC1CN(C(=O)[C@@H]2NC(=O)c3c[nH]c4ncc(nc34)[C@]3(CCSCC[C@]24CC4)CC3)C1
REMARK SMILES IDX 12 1 13 2 14 3 15 4 16 5 17 6 18 7 19 8 20 9 10 11 9 12
REMARK SMILES IDX 11 13 8 15 6 16 1 17 2 18 3 19 4 20 32 21 5 22 7 23 27 24
REMARK SMILES IDX 28 25 29 26 26 27 21 29 30 30 31 31 22 32 23 33 24 34 25 35
REMARK H PARENT 14 10 9 14
REMARK Flexibility Score:   64.900
ROOT
ATOM      1  C   UNL     1      33.599  11.356  -2.870  1.00  0.00     0.085 A
ATOM      2  C   UNL     1      34.516  10.593  -2.155  1.00  0.00     0.100 A
ATOM      3  N   UNL     1      34.118   9.277  -2.195  1.00  0.00    -0.344 N
ATOM      4  C   UNL     1      32.962   9.172  -2.916  1.00  0.00     0.156 A
ATOM      5  N   UNL     1      32.255   8.050  -3.142  1.00  0.00    -0.235 NA
ATOM      6  C   UNL     1      31.139   8.324  -3.877  1.00  0.00     0.138 A
ATOM      7  C   UNL     1      30.765   9.584  -4.374  1.00  0.00     0.066 A
ATOM      8  N   UNL     1      31.539  10.674  -4.131  1.00  0.00    -0.246 NA
ATOM      9  C   UNL     1      32.637  10.440  -3.368  1.00  0.00     0.120 A
ATOM     10  H   UNL     1      34.581   8.496  -1.752  1.00  0.00     0.168 HD
ENDROOT
BRANCH   1  11
ATOM     11  C   UNL     1      33.630  12.801  -3.044  1.00  0.00     0.255 C
ATOM     12  N   UNL     1      32.518  13.308  -3.671  1.00  0.00    -0.340 N
ATOM     13  O   UNL     1      34.573  13.490  -2.673  1.00  0.00    -0.269 OA
ATOM     14  H   UNL     1      31.803  12.654  -3.980  1.00  0.00     0.164 HD
BRANCH  12  15
ATOM     15  C   UNL     1      32.309  14.720  -3.934  1.00  0.00     0.178 C
BRANCH  15  16
ATOM     16  C   UNL     1      32.532  15.083  -5.429  1.00  0.00     0.245 C
ATOM     17  N   UNL     1      34.383  20.275  -6.793  1.00  0.00    -0.198 NA
ATOM     18  C   UNL     1      33.628  19.418  -6.586  1.00  0.00     0.069 C
ATOM     19  C   UNL     1      32.693  18.353  -6.325  1.00  0.00     0.131 C
ATOM     20  C   UNL     1      33.002  17.016  -7.020  1.00  0.00     0.140 C
ATOM     21  C   UNL     1      32.881  17.625  -4.980  1.00  0.00     0.140 C
ATOM     22  N   UNL     1      32.787  16.392  -5.728  1.00  0.00    -0.338 N
ATOM     23  O   UNL     1      32.368  14.264  -6.337  1.00  0.00    -0.272 OA
ENDBRANCH  15  16
BRANCH  15  24
ATOM     24  C   UNL     1      30.917  15.113  -3.410  1.00  0.00     0.000 C
ATOM     25  C   UNL     1      29.795  15.264  -4.431  1.00  0.00     0.010 C
ATOM     26  C   UNL     1      29.824  14.060  -3.544  1.00  0.00     0.010 C
BRANCH  24  27
ATOM     27  C   UNL     1      30.883  15.982  -2.146  1.00  0.00     0.020 C
ATOM     28  G   UNL     1      31.164  15.201  -0.860  1.00  0.00     0.000 C
ENDBRANCH  24  27
ENDBRANCH  15  24
ENDBRANCH  12  15
ENDBRANCH   1  11
BRANCH   7  29
ATOM     29  C   UNL     1      29.468   9.847  -5.151  1.00  0.00     0.015 C
ATOM     30  C   UNL     1      29.276   9.042  -6.429  1.00  0.00     0.014 C
ATOM     31  C   UNL     1      28.359   8.815  -5.265  1.00  0.00     0.014 C
BRANCH  29  32
ATOM     32  C   UNL     1      29.068  11.323  -5.221  1.00  0.00     0.024 C
BRANCH  32  33
ATOM     33  C   UNL     1      27.575  11.511  -5.488  1.00  0.00     0.070 C
BRANCH  33  34
ATOM     34  S   UNL     1      27.248  12.982  -6.517  1.00  0.00    -0.162 SA
BRANCH  34  35
ATOM     35  C   UNL     1      25.820  13.693  -5.614  1.00  0.00     0.070 C
ATOM     36  G   UNL     1      26.227  14.941  -4.826  1.00  0.00     0.000 C
ENDBRANCH  34  35
ENDBRANCH  33  34
ENDBRANCH  32  33
ENDBRANCH  29  32
ENDBRANCH   7  29
TORSDOF 1
ENDMDL
MODEL 3
REMARK VINA RESULT:      -8.0      1.699      2.839
REMARK SMILES N#CC1CN(C(=O)[C@@H]2NC(=O)c3c[nH]c4ncc(nc34)[C@]3(CCSCC[C@]24CC4)CC3)C1
REMARK SMILES IDX 12 1 13 2 14 3 15 4 16 5 17 6 18 7 19 8 20 9 10 11 9 12
REMARK SMILES IDX 11 13 8 15 6 16 1 17 2 18 3 19 4 20 32 21 5 22 7 23 27 24
REMARK SMILES IDX 28 25 29 26 26 27 21 29 30 30 31 31 22 32 23 33 24 34 25 35
REMARK H PARENT 14 10 9 14
REMARK Flexibility Score:   64.900
ROOT
ATOM      1  C   UNL     1      33.739  11.308  -2.771  1.00  0.00     0.085 A
ATOM      2  C   UNL     1      34.646  10.571  -2.018  1.00  0.00     0.100 A
ATOM      3  N   UNL     1      34.254   9.252  -2.026  1.00  0.00    -0.344 N
ATOM      4  C   UNL     1      33.111   9.121  -2.763  1.00  0.00     0.156 A
ATOM      5  N   UNL     1      32.412   7.990  -2.968  1.00  0.00    -0.235 NA
ATOM      6  C   UNL     1      31.309   8.238  -3.730  1.00  0.00     0.138 A
ATOM      7  C   UNL     1      30.938   9.480  -4.271  1.00  0.00     0.066 A
ATOM      8  N   UNL     1      31.704  10.581  -4.047  1.00  0.00    -0.246 NA
ATOM      9  C   UNL     1      32.789  10.374  -3.259  1.00  0.00     0.120 A
ATOM     10  H   UNL     1      34.711   8.487  -1.552  1.00  0.00     0.168 HD
ENDROOT
BRANCH   1  11
ATOM     11  C   UNL     1      33.767  12.747  -2.987  1.00  0.00     0.255 C
ATOM     12  N   UNL     1      32.595  13.256  -3.492  1.00  0.00    -0.340 N
ATOM     13  O   UNL     1      34.756  13.431  -2.751  1.00  0.00    -0.269 OA
ATOM     14  H   UNL     1      31.840  12.606  -3.695  1.00  0.00     0.164 HD
BRANCH  12  15
ATOM     15  C   UNL     1      32.375  14.664  -3.767  1.00  0.00     0.178 C
BRANCH  15  16
ATOM     16  C   UNL     1      32.510  15.000  -5.279  1.00  0.00     0.245 C
ATOM     17  N   UNL     1      34.299  20.158  -6.840  1.00  0.00    -0.198 NA
ATOM     18  C   UNL     1      33.554  19.309  -6.574  1.00  0.00     0.069 C
ATOM     19  C   UNL     1      32.632  18.253  -6.240  1.00  0.00     0.131 C
ATOM     20  C   UNL     1      32.893  16.903  -6.929  1.00  0.00     0.140 C
ATOM     21  C   UNL     1      32.896  17.548  -4.896  1.00  0.00     0.140 C
ATOM     22  N   UNL     1      32.753  16.302  -5.616  1.00  0.00    -0.338 N
ATOM     23  O   UNL     1      32.290  14.166  -6.161  1.00  0.00    -0.272 OA
ENDBRANCH  15  16
BRANCH  15  24
ATOM     24  C   UNL     1      31.016  15.070  -3.170  1.00  0.00     0.000 C
ATOM     25  C   UNL     1      30.899  15.124  -1.652  1.00  0.00     0.010 C
ATOM     26  C   UNL     1      30.976  16.400  -2.427  1.00  0.00     0.010 C
BRANCH  24  27
ATOM     27  C   UNL     1      29.772  14.703  -3.991  1.00  0.00     0.020 C
ATOM     28  G   UNL     1      29.137  15.899  -4.704  1.00  0.00     0.000 C
ENDBRANCH  24  27
ENDBRANCH  15  24
ENDBRANCH  12  15
ENDBRANCH   1  11
BRANCH   7  29
ATOM     29  C   UNL     1      29.654   9.714  -5.078  1.00  0.00     0.015 C
ATOM     30  C   UNL     1      29.504   8.895  -6.353  1.00  0.00     0.014 C
ATOM     31  C   UNL     1      28.566   8.663  -5.207  1.00  0.00     0.014 C
BRANCH  29  32
ATOM     32  C   UNL     1      29.231  11.183  -5.170  1.00  0.00     0.024 C
BRANCH  32  33
ATOM     33  C   UNL     1      27.712  11.352  -5.185  1.00  0.00     0.070 C
BRANCH  33  34
ATOM     34  S   UNL     1      27.158  12.397  -6.576  1.00  0.00    -0.162 SA
BRANCH  34  35
ATOM     35  C   UNL     1      26.286  13.720  -5.655  1.00  0.00     0.070 C
ATOM     36  G   UNL     1      26.132  14.982  -6.508  1.00  0.00     0.000 C
ENDBRANCH  34  35
ENDBRANCH  33  34
ENDBRANCH  32  33
ENDBRANCH  29  32
ENDBRANCH   7  29
TORSDOF 1
ENDMDL
MODEL 4
REMARK VINA RESULT:      -7.9      0.549      1.206
REMARK SMILES N#CC1CN(C(=O)[C@@H]2NC(=O)c3c[nH]c4ncc(nc34)[C@]3(CCSCC[C@]24CC4)CC3)C1
REMARK SMILES IDX 12 1 13 2 14 3 15 4 16 5 17 6 18 7 19 8 20 9 10 11 9 12
REMARK SMILES IDX 11 13 8 15 6 16 1 17 2 18 3 19 4 20 32 21 5 22 7 23 27 24
REMARK SMILES IDX 28 25 29 26 26 27 21 29 30 30 31 31 22 32 23 33 24 34 25 35
REMARK H PARENT 14 10 9 14
REMARK Flexibility Score:   64.900
ROOT
ATOM      1  C   UNL     1      34.481  12.386  -2.464  1.00  0.00     0.085 A
ATOM      2  C   UNL     1      35.556  12.017  -1.664  1.00  0.00     0.100 A
ATOM      3  N   UNL     1      35.498  10.659  -1.450  1.00  0.00    -0.344 N
ATOM      4  C   UNL     1      34.407  10.143  -2.090  1.00  0.00     0.156 A
ATOM      5  N   UNL     1      34.002   8.860  -2.079  1.00  0.00    -0.235 NA
ATOM      6  C   UNL     1      32.856   8.712  -2.803  1.00  0.00     0.138 A
ATOM      7  C   UNL     1      32.181   9.727  -3.502  1.00  0.00     0.066 A
ATOM      8  N   UNL     1      32.659  10.999  -3.492  1.00  0.00    -0.246 NA
ATOM      9  C   UNL     1      33.778  11.187  -2.748  1.00  0.00     0.120 A
ATOM     10  H   UNL     1      36.139  10.111  -0.893  1.00  0.00     0.168 HD
ENDROOT
BRANCH   1  11
ATOM     11  C   UNL     1      34.151  13.736  -2.897  1.00  0.00     0.255 C
ATOM     12  N   UNL     1      32.879  13.864  -3.399  1.00  0.00    -0.340 N
ATOM     13  O   UNL     1      34.949  14.665  -2.828  1.00  0.00    -0.269 OA
ATOM     14  H   UNL     1      32.301  13.029  -3.454  1.00  0.00     0.164 HD
BRANCH  12  15
ATOM     15  C   UNL     1      32.315  15.116  -3.868  1.00  0.00     0.178 C
BRANCH  15  16
ATOM     16  C   UNL     1      32.629  15.380  -5.368  1.00  0.00     0.245 C
ATOM     17  N   UNL     1      34.532  20.487  -6.961  1.00  0.00    -0.198 NA
ATOM     18  C   UNL     1      33.771  19.639  -6.744  1.00  0.00     0.069 C
ATOM     19  C   UNL     1      32.827  18.584  -6.470  1.00  0.00     0.131 C
ATOM     20  C   UNL     1      33.186  17.208  -7.053  1.00  0.00     0.140 C
ATOM     21  C   UNL     1      32.934  17.950  -5.070  1.00  0.00     0.140 C
ATOM     22  N   UNL     1      32.895  16.669  -5.739  1.00  0.00    -0.338 N
ATOM     23  O   UNL     1      32.527  14.501  -6.227  1.00  0.00    -0.272 OA
ENDBRANCH  15  16
BRANCH  15  24
ATOM     24  C   UNL     1      30.810  15.123  -3.548  1.00  0.00     0.000 C
ATOM     25  C   UNL     1      29.840  15.223  -4.719  1.00  0.00     0.010 C
ATOM     26  C   UNL     1      30.014  13.913  -4.019  1.00  0.00     0.010 C
BRANCH  24  27
ATOM     27  C   UNL     1      30.402  15.734  -2.201  1.00  0.00     0.020 C
ATOM     28  G   UNL     1      31.222  15.209  -1.019  1.00  0.00     0.000 C
ENDBRANCH  24  27
ENDBRANCH  15  24
ENDBRANCH  12  15
ENDBRANCH   1  11
BRANCH   7  29
ATOM     29  C   UNL     1      30.862   9.516  -4.257  1.00  0.00     0.015 C
ATOM     30  C   UNL     1      29.678  10.349  -3.788  1.00  0.00     0.014 C
ATOM     31  C   UNL     1      30.253  10.581  -5.153  1.00  0.00     0.014 C
BRANCH  29  32
ATOM     32  C   UNL     1      30.562   8.053  -4.595  1.00  0.00     0.024 C
BRANCH  32  33
ATOM     33  C   UNL     1      29.588   7.912  -5.766  1.00  0.00     0.070 C
BRANCH  33  34
ATOM     34  S   UNL     1      28.507   6.454  -5.580  1.00  0.00    -0.162 SA
BRANCH  34  35
ATOM     35  C   UNL     1      27.106   6.956  -6.651  1.00  0.00     0.070 C
ATOM     36  G   UNL     1      27.028   8.479  -6.785  1.00  0.00     0.000 C
ENDBRANCH  34  35
ENDBRANCH  33  34
ENDBRANCH  32  33
ENDBRANCH  29  32
ENDBRANCH   7  29
TORSDOF 1
ENDMDL
MODEL 5
REMARK VINA RESULT:      -7.7      0.868      1.171
REMARK SMILES N#CC1CN(C(=O)[C@@H]2NC(=O)c3c[nH]c4ncc(nc34)[C@]3(CCSCC[C@]24CC4)CC3)C1
REMARK SMILES IDX 12 1 13 2 14 3 15 4 16 5 17 6 18 7 19 8 20 9 10 11 9 12
REMARK SMILES IDX 11 13 8 15 6 16 1 17 2 18 3 19 4 20 32 21 5 22 7 23 27 24
REMARK SMILES IDX 28 25 29 26 26 27 21 29 30 30 31 31 22 32 23 33 24 34 25 35
REMARK H PARENT 14 10 9 14
REMARK Flexibility Score:   64.900
ROOT
ATOM      1  C   UNL     1      34.233  12.493  -2.657  1.00  0.00     0.085 A
ATOM      2  C   UNL     1      35.307  12.043  -1.899  1.00  0.00     0.100 A
ATOM      3  N   UNL     1      35.191  10.681  -1.738  1.00  0.00    -0.344 N
ATOM      4  C   UNL     1      34.063  10.242  -2.372  1.00  0.00     0.156 A
ATOM      5  N   UNL     1      33.598   8.980  -2.403  1.00  0.00    -0.235 NA
ATOM      6  C   UNL     1      32.431   8.914  -3.104  1.00  0.00     0.138 A
ATOM      7  C   UNL     1      31.789   9.988  -3.745  1.00  0.00     0.066 A
ATOM      8  N   UNL     1      32.326  11.235  -3.695  1.00  0.00    -0.246 NA
ATOM      9  C   UNL     1      33.469  11.340  -2.972  1.00  0.00     0.120 A
ATOM     10  H   UNL     1      35.818  10.082  -1.220  1.00  0.00     0.168 HD
ENDROOT
BRANCH   1  11
ATOM     11  C   UNL     1      33.957  13.874  -3.026  1.00  0.00     0.255 C
ATOM     12  N   UNL     1      32.762  14.046  -3.680  1.00  0.00    -0.340 N
ATOM     13  O   UNL     1      34.734  14.790  -2.782  1.00  0.00    -0.269 OA
ATOM     14  H   UNL     1      32.200  13.220  -3.875  1.00  0.00     0.164 HD
BRANCH  12  15
ATOM     15  C   UNL     1      32.259  15.332  -4.125  1.00  0.00     0.178 C
BRANCH  15  16
ATOM     16  C   UNL     1      32.664  15.651  -5.591  1.00  0.00     0.245 C
ATOM     17  N   UNL     1      34.912  20.718  -6.825  1.00  0.00    -0.198 NA
ATOM     18  C   UNL     1      34.097  19.903  -6.690  1.00  0.00     0.069 C
ATOM     19  C   UNL     1      33.086  18.889  -6.518  1.00  0.00     0.131 C
ATOM     20  C   UNL     1      33.404  17.525  -7.152  1.00  0.00     0.140 C
ATOM     21  C   UNL     1      33.088  18.184  -5.148  1.00  0.00     0.140 C
ATOM     22  N   UNL     1      33.016  16.940  -5.882  1.00  0.00    -0.338 N
ATOM     23  O   UNL     1      32.562  14.821  -6.498  1.00  0.00    -0.272 OA
ENDBRANCH  15  16
BRANCH  15  24
ATOM     24  C   UNL     1      30.739  15.370  -3.889  1.00  0.00     0.000 C
ATOM     25  C   UNL     1      30.118  14.223  -3.102  1.00  0.00     0.010 C
ATOM     26  C   UNL     1      30.285  15.556  -2.447  1.00  0.00     0.010 C
BRANCH  24  27
ATOM     27  C   UNL     1      29.897  16.061  -4.970  1.00  0.00     0.020 C
ATOM     28  G   UNL     1      29.523  17.504  -4.623  1.00  0.00     0.000 C
ENDBRANCH  24  27
ENDBRANCH  15  24
ENDBRANCH  12  15
ENDBRANCH   1  11
BRANCH   7  29
ATOM     29  C   UNL     1      30.445   9.868  -4.476  1.00  0.00     0.015 C
ATOM     30  C   UNL     1      29.280  10.639  -3.870  1.00  0.00     0.014 C
ATOM     31  C   UNL     1      29.810  11.033  -5.216  1.00  0.00     0.014 C
BRANCH  29  32
ATOM     32  C   UNL     1      30.128   8.456  -4.977  1.00  0.00     0.024 C
BRANCH  32  33
ATOM     33  C   UNL     1      29.503   8.460  -6.372  1.00  0.00     0.070 C
BRANCH  33  34
ATOM     34  S   UNL     1      27.786   7.840  -6.350  1.00  0.00    -0.162 SA
BRANCH  34  35
ATOM     35  C   UNL     1      28.050   6.196  -5.583  1.00  0.00     0.070 C
ATOM     36  G   UNL     1      27.083   5.155  -6.154  1.00  0.00     0.000 C
ENDBRANCH  34  35
ENDBRANCH  33  34
ENDBRANCH  32  33
ENDBRANCH  29  32
ENDBRANCH   7  29
TORSDOF 1
ENDMDL
MODEL 6
REMARK VINA RESULT:      -7.5      3.967      8.210
REMARK SMILES N#CC1CN(C(=O)[C@@H]2NC(=O)c3c[nH]c4ncc(nc34)[C@]3(CCSCC[C@]24CC4)CC3)C1
REMARK SMILES IDX 12 1 13 2 14 3 15 4 16 5 17 6 18 7 19 8 20 9 10 11 9 12
REMARK SMILES IDX 11 13 8 15 6 16 1 17 2 18 3 19 4 20 32 21 5 22 7 23 27 24
REMARK SMILES IDX 28 25 29 26 26 27 21 29 30 30 31 31 22 32 23 33 24 34 25 35
REMARK H PARENT 14 10 9 14
REMARK Flexibility Score:   64.900
ROOT
ATOM      1  C   UNL     1      30.841   9.271  -4.157  1.00  0.00     0.085 A
ATOM      2  C   UNL     1      31.456   8.124  -3.670  1.00  0.00     0.100 A
ATOM      3  N   UNL     1      32.597   8.490  -2.994  1.00  0.00    -0.344 N
ATOM      4  C   UNL     1      32.736   9.849  -3.037  1.00  0.00     0.156 A
ATOM      5  N   UNL     1      33.746  10.571  -2.519  1.00  0.00    -0.235 NA
ATOM      6  C   UNL     1      33.570  11.898  -2.776  1.00  0.00     0.138 A
ATOM      7  C   UNL     1      32.483  12.473  -3.455  1.00  0.00     0.066 A
ATOM      8  N   UNL     1      31.481  11.688  -3.932  1.00  0.00    -0.246 NA
ATOM      9  C   UNL     1      31.646  10.357  -3.726  1.00  0.00     0.120 A
ATOM     10  H   UNL     1      33.256   7.869  -2.546  1.00  0.00     0.168 HD
ENDROOT
BRANCH   1  11
ATOM     11  C   UNL     1      29.627   9.325  -4.958  1.00  0.00     0.255 C
ATOM     12  N   UNL     1      29.456   8.239  -5.782  1.00  0.00    -0.340 N
ATOM     13  O   UNL     1      28.843  10.266  -4.906  1.00  0.00    -0.269 OA
ATOM     14  H   UNL     1      30.181   7.526  -5.788  1.00  0.00     0.164 HD
BRANCH  12  15
ATOM     15  C   UNL     1      28.312   8.056  -6.655  1.00  0.00     0.178 C
BRANCH  15  16
ATOM     16  C   UNL     1      28.669   8.279  -8.152  1.00  0.00     0.245 C
ATOM     17  N   UNL     1      26.167  12.495 -11.017  1.00  0.00    -0.198 NA
ATOM     18  C   UNL     1      26.342  11.423 -10.609  1.00  0.00     0.069 C
ATOM     19  C   UNL     1      26.560  10.093 -10.096  1.00  0.00     0.131 C
ATOM     20  C   UNL     1      27.990   9.550 -10.253  1.00  0.00     0.140 C
ATOM     21  C   UNL     1      26.757   9.999  -8.571  1.00  0.00     0.140 C
ATOM     22  N   UNL     1      27.908   9.171  -8.855  1.00  0.00    -0.338 N
ATOM     23  O   UNL     1      29.519   7.601  -8.734  1.00  0.00    -0.272 OA
ENDBRANCH  15  16
BRANCH  15  24
ATOM     24  C   UNL     1      27.699   6.674  -6.372  1.00  0.00     0.000 C
ATOM     25  C   UNL     1      26.213   6.616  -6.037  1.00  0.00     0.010 C
ATOM     26  C   UNL     1      26.680   6.168  -7.385  1.00  0.00     0.010 C
BRANCH  24  27
ATOM     27  C   UNL     1      28.634   5.626  -5.754  1.00  0.00     0.020 C
ATOM     28  G   UNL     1      29.270   4.691  -6.786  1.00  0.00     0.000 C
ENDBRANCH  24  27
ENDBRANCH  15  24
ENDBRANCH  12  15
ENDBRANCH   1  11
BRANCH   7  29
ATOM     29  C   UNL     1      32.362  13.971  -3.765  1.00  0.00     0.015 C
ATOM     30  C   UNL     1      32.120  14.886  -2.572  1.00  0.00     0.014 C
ATOM     31  C   UNL     1      33.409  14.983  -3.332  1.00  0.00     0.014 C
BRANCH  29  32
ATOM     32  C   UNL     1      31.555  14.286  -5.028  1.00  0.00     0.024 C
BRANCH  32  33
ATOM     33  C   UNL     1      32.230  15.342  -5.903  1.00  0.00     0.070 C
BRANCH  33  34
ATOM     34  S   UNL     1      31.057  16.638  -6.430  1.00  0.00    -0.162 SA
BRANCH  34  35
ATOM     35  C   UNL     1      30.602  17.341  -4.799  1.00  0.00     0.070 C
ATOM     36  G   UNL     1      31.601  18.414  -4.359  1.00  0.00     0.000 C
ENDBRANCH  34  35
ENDBRANCH  33  34
ENDBRANCH  32  33
ENDBRANCH  29  32
ENDBRANCH   7  29
TORSDOF 1
ENDMDL
MODEL 7
REMARK VINA RESULT:      -7.4      1.370      2.002
REMARK SMILES N#CC1CN(C(=O)[C@@H]2NC(=O)c3c[nH]c4ncc(nc34)[C@]3(CCSCC[C@]24CC4)CC3)C1
REMARK SMILES IDX 12 1 13 2 14 3 15 4 16 5 17 6 18 7 19 8 20 9 10 11 9 12
REMARK SMILES IDX 11 13 8 15 6 16 1 17 2 18 3 19 4 20 32 21 5 22 7 23 27 24
REMARK SMILES IDX 28 25 29 26 26 27 21 29 30 30 31 31 22 32 23 33 24 34 25 35
REMARK H PARENT 14 10 9 14
REMARK Flexibility Score:   64.900
ROOT
ATOM      1  C   UNL     1      33.108  10.771  -2.993  1.00  0.00     0.085 A
ATOM      2  C   UNL     1      33.891   9.897  -2.248  1.00  0.00     0.100 A
ATOM      3  N   UNL     1      33.376   8.628  -2.377  1.00  0.00    -0.344 N
ATOM      4  C   UNL     1      32.275   8.662  -3.185  1.00  0.00     0.156 A
ATOM      5  N   UNL     1      31.486   7.623  -3.512  1.00  0.00    -0.235 NA
ATOM      6  C   UNL     1      30.461   8.031  -4.314  1.00  0.00     0.138 A
ATOM      7  C   UNL     1      30.246   9.339  -4.780  1.00  0.00     0.066 A
ATOM      8  N   UNL     1      31.097  10.339  -4.432  1.00  0.00    -0.246 NA
ATOM      9  C   UNL     1      32.106   9.972  -3.602  1.00  0.00     0.120 A
ATOM     10  H   UNL     1      33.728   7.790  -1.936  1.00  0.00     0.168 HD
ENDROOT
BRANCH   1  11
ATOM     11  C   UNL     1      33.286  12.212  -3.099  1.00  0.00     0.255 C
ATOM     12  N   UNL     1      32.198  12.869  -3.620  1.00  0.00    -0.340 N
ATOM     13  O   UNL     1      34.322  12.775  -2.766  1.00  0.00    -0.269 OA
ATOM     14  H   UNL     1      31.396  12.314  -3.907  1.00  0.00     0.164 HD
BRANCH  12  15
ATOM     15  C   UNL     1      32.129  14.308  -3.798  1.00  0.00     0.178 C
BRANCH  15  16
ATOM     16  C   UNL     1      32.304  14.729  -5.285  1.00  0.00     0.245 C
ATOM     17  N   UNL     1      34.438  19.848  -6.501  1.00  0.00    -0.198 NA
ATOM     18  C   UNL     1      33.637  19.034  -6.296  1.00  0.00     0.069 C
ATOM     19  C   UNL     1      32.645  18.021  -6.037  1.00  0.00     0.131 C
ATOM     20  C   UNL     1      32.828  16.703  -6.807  1.00  0.00     0.140 C
ATOM     21  C   UNL     1      32.847  17.217  -4.738  1.00  0.00     0.140 C
ATOM     22  N   UNL     1      32.633  16.031  -5.536  1.00  0.00    -0.338 N
ATOM     23  O   UNL     1      32.042  13.968  -6.219  1.00  0.00    -0.272 OA
ENDBRANCH  15  16
BRANCH  15  24
ATOM     24  C   UNL     1      30.820  14.816  -3.169  1.00  0.00     0.000 C
ATOM     25  C   UNL     1      30.808  15.061  -1.666  1.00  0.00     0.010 C
ATOM     26  C   UNL     1      30.849  16.228  -2.600  1.00  0.00     0.010 C
BRANCH  24  27
ATOM     27  C   UNL     1      29.519  14.375  -3.853  1.00  0.00     0.020 C
ATOM     28  G   UNL     1      28.903  15.456  -4.747  1.00  0.00     0.000 C
ENDBRANCH  24  27
ENDBRANCH  15  24
ENDBRANCH  12  15
ENDBRANCH   1  11
BRANCH   7  29
ATOM     29  C   UNL     1      29.043   9.755  -5.638  1.00  0.00     0.015 C
ATOM     30  C   UNL     1      27.793  10.181  -4.881  1.00  0.00     0.014 C
ATOM     31  C   UNL     1      28.541  11.187  -5.703  1.00  0.00     0.014 C
BRANCH  29  32
ATOM     32  C   UNL     1      28.815   8.870  -6.867  1.00  0.00     0.024 C
BRANCH  32  33
ATOM     33  C   UNL     1      27.548   8.022  -6.747  1.00  0.00     0.070 C
BRANCH  33  34
ATOM     34  S   UNL     1      27.934   6.258  -6.474  1.00  0.00    -0.162 SA
BRANCH  34  35
ATOM     35  C   UNL     1      26.753   5.878  -5.125  1.00  0.00     0.070 C
ATOM     36  G   UNL     1      25.723   6.998  -4.956  1.00  0.00     0.000 C
ENDBRANCH  34  35
ENDBRANCH  33  34
ENDBRANCH  32  33
ENDBRANCH  29  32
ENDBRANCH   7  29
TORSDOF 1
ENDMDL
MODEL 8
REMARK VINA RESULT:      -7.4      2.188      3.325
REMARK SMILES N#CC1CN(C(=O)[C@@H]2NC(=O)c3c[nH]c4ncc(nc34)[C@]3(CCSCC[C@]24CC4)CC3)C1
REMARK SMILES IDX 12 1 13 2 14 3 15 4 16 5 17 6 18 7 19 8 20 9 10 11 9 12
REMARK SMILES IDX 11 13 8 15 6 16 1 17 2 18 3 19 4 20 32 21 5 22 7 23 27 24
REMARK SMILES IDX 28 25 29 26 26 27 21 29 30 30 31 31 22 32 23 33 24 34 25 35
REMARK H PARENT 14 10 9 14
REMARK Flexibility Score:   64.900
ROOT
ATOM      1  C   UNL     1      32.577  14.702  -2.905  1.00  0.00     0.085 A
ATOM      2  C   UNL     1      33.644  15.589  -2.828  1.00  0.00     0.100 A
ATOM      3  N   UNL     1      34.812  14.866  -2.756  1.00  0.00    -0.344 N
ATOM      4  C   UNL     1      34.524  13.531  -2.779  1.00  0.00     0.156 A
ATOM      5  N   UNL     1      35.404  12.517  -2.689  1.00  0.00    -0.235 NA
ATOM      6  C   UNL     1      34.758  11.316  -2.717  1.00  0.00     0.138 A
ATOM      7  C   UNL     1      33.373  11.124  -2.851  1.00  0.00     0.066 A
ATOM      8  N   UNL     1      32.541  12.193  -2.963  1.00  0.00    -0.246 NA
ATOM      9  C   UNL     1      33.150  13.404  -2.900  1.00  0.00     0.120 A
ATOM     10  H   UNL     1      35.747  15.241  -2.677  1.00  0.00     0.168 HD
ENDROOT
BRANCH   1  11
ATOM     11  C   UNL     1      31.166  15.053  -2.960  1.00  0.00     0.255 C
ATOM     12  N   UNL     1      30.848  15.918  -3.979  1.00  0.00    -0.340 N
ATOM     13  O   UNL     1      30.346  14.622  -2.156  1.00  0.00    -0.269 OA
ATOM     14  H   UNL     1      31.602  16.255  -4.572  1.00  0.00     0.164 HD
BRANCH  12  15
ATOM     15  C   UNL     1      29.503  16.391  -4.250  1.00  0.00     0.178 C
BRANCH  15  16
ATOM     16  C   UNL     1      29.482  17.872  -4.723  1.00  0.00     0.245 C
ATOM     17  N   UNL     1      34.192  20.170  -6.909  1.00  0.00    -0.198 NA
ATOM     18  C   UNL     1      33.403  19.882  -6.108  1.00  0.00     0.069 C
ATOM     19  C   UNL     1      32.423  19.520  -5.115  1.00  0.00     0.131 C
ATOM     20  C   UNL     1      30.960  19.797  -5.498  1.00  0.00     0.140 C
ATOM     21  C   UNL     1      32.061  18.024  -5.062  1.00  0.00     0.140 C
ATOM     22  N   UNL     1      30.677  18.444  -5.058  1.00  0.00    -0.338 N
ATOM     23  O   UNL     1      28.458  18.560  -4.688  1.00  0.00    -0.272 OA
ENDBRANCH  15  16
BRANCH  15  24
ATOM     24  C   UNL     1      28.836  15.423  -5.241  1.00  0.00     0.000 C
ATOM     25  C   UNL     1      28.229  14.143  -4.679  1.00  0.00     0.010 C
ATOM     26  C   UNL     1      27.327  15.256  -5.110  1.00  0.00     0.010 C
BRANCH  24  27
ATOM     27  C   UNL     1      29.409  15.401  -6.665  1.00  0.00     0.020 C
ATOM     28  G   UNL     1      28.457  15.979  -7.715  1.00  0.00     0.000 C
ENDBRANCH  24  27
ENDBRANCH  15  24
ENDBRANCH  12  15
ENDBRANCH   1  11
BRANCH   7  29
ATOM     29  C   UNL     1      32.692   9.749  -2.821  1.00  0.00     0.015 C
ATOM     30  C   UNL     1      33.559   8.580  -2.372  1.00  0.00     0.014 C
ATOM     31  C   UNL     1      32.397   9.010  -1.527  1.00  0.00     0.014 C
BRANCH  29  32
ATOM     32  C   UNL     1      31.769   9.482  -4.013  1.00  0.00     0.024 C
BRANCH  32  33
ATOM     33  C   UNL     1      30.291   9.617  -3.648  1.00  0.00     0.070 C
BRANCH  33  34
ATOM     34  S   UNL     1      29.321  10.362  -5.003  1.00  0.00    -0.162 SA
BRANCH  34  35
ATOM     35  C   UNL     1      29.192   8.924  -6.132  1.00  0.00     0.070 C
ATOM     36  G   UNL     1      28.026   8.013  -5.739  1.00  0.00     0.000 C
ENDBRANCH  34  35
ENDBRANCH  33  34
ENDBRANCH  32  33
ENDBRANCH  29  32
ENDBRANCH   7  29
TORSDOF 1
ENDMDL
MODEL 9
REMARK VINA RESULT:      -7.4      4.205      8.321
REMARK SMILES N#CC1CN(C(=O)[C@@H]2NC(=O)c3c[nH]c4ncc(nc34)[C@]3(CCSCC[C@]24CC4)CC3)C1
REMARK SMILES IDX 12 1 13 2 14 3 15 4 16 5 17 6 18 7 19 8 20 9 10 11 9 12
REMARK SMILES IDX 11 13 8 15 6 16 1 17 2 18 3 19 4 20 32 21 5 22 7 23 27 24
REMARK SMILES IDX 28 25 29 26 26 27 21 29 30 30 31 31 22 32 23 33 24 34 25 35
REMARK H PARENT 14 10 9 14
REMARK Flexibility Score:   64.900
ROOT
ATOM      1  C   UNL     1      30.701   9.697  -4.126  1.00  0.00     0.085 A
ATOM      2  C   UNL     1      31.428   8.681  -3.516  1.00  0.00     0.100 A
ATOM      3  N   UNL     1      32.586   9.217  -3.001  1.00  0.00    -0.344 N
ATOM      4  C   UNL     1      32.626  10.556  -3.269  1.00  0.00     0.156 A
ATOM      5  N   UNL     1      33.618  11.409  -2.955  1.00  0.00    -0.235 NA
ATOM      6  C   UNL     1      33.333  12.665  -3.404  1.00  0.00     0.138 A
ATOM      7  C   UNL     1      32.163  13.058  -4.075  1.00  0.00     0.066 A
ATOM      8  N   UNL     1      31.187  12.150  -4.339  1.00  0.00    -0.246 NA
ATOM      9  C   UNL     1      31.458  10.882  -3.939  1.00  0.00     0.120 A
ATOM     10  H   UNL     1      33.315   8.716  -2.515  1.00  0.00     0.168 HD
ENDROOT
BRANCH   1  11
ATOM     11  C   UNL     1      29.433   9.550  -4.825  1.00  0.00     0.255 C
ATOM     12  N   UNL     1      29.488   8.699  -5.902  1.00  0.00    -0.340 N
ATOM     13  O   UNL     1      28.419  10.147  -4.484  1.00  0.00    -0.269 OA
ATOM     14  H   UNL     1      30.384   8.279  -6.134  1.00  0.00     0.164 HD
BRANCH  12  15
ATOM     15  C   UNL     1      28.346   8.374  -6.737  1.00  0.00     0.178 C
BRANCH  15  16
ATOM     16  C   UNL     1      28.724   8.275  -8.242  1.00  0.00     0.245 C
ATOM     17  N   UNL     1      26.390  11.890 -11.947  1.00  0.00    -0.198 NA
ATOM     18  C   UNL     1      26.525  10.920 -11.325  1.00  0.00     0.069 C
ATOM     19  C   UNL     1      26.694   9.717 -10.549  1.00  0.00     0.131 C
ATOM     20  C   UNL     1      28.106   9.110 -10.569  1.00  0.00     0.140 C
ATOM     21  C   UNL     1      26.874   9.931  -9.034  1.00  0.00     0.140 C
ATOM     22  N   UNL     1      27.999   9.027  -9.125  1.00  0.00    -0.338 N
ATOM     23  O   UNL     1      29.556   7.466  -8.660  1.00  0.00    -0.272 OA
ENDBRANCH  15  16
BRANCH  15  24
ATOM     24  C   UNL     1      27.686   7.098  -6.187  1.00  0.00     0.000 C
ATOM     25  C   UNL     1      26.249   7.203  -5.692  1.00  0.00     0.010 C
ATOM     26  C   UNL     1      26.528   6.533  -7.000  1.00  0.00     0.010 C
BRANCH  24  27
ATOM     27  C   UNL     1      28.620   6.079  -5.521  1.00  0.00     0.020 C
ATOM     28  G   UNL     1      28.925   4.864  -6.400  1.00  0.00     0.000 C
ENDBRANCH  24  27
ENDBRANCH  15  24
ENDBRANCH  12  15
ENDBRANCH   1  11
BRANCH   7  29
ATOM     29  C   UNL     1      31.917  14.476  -4.607  1.00  0.00     0.015 C
ATOM     30  C   UNL     1      32.357  14.742  -6.040  1.00  0.00     0.014 C
ATOM     31  C   UNL     1      30.899  14.776  -5.694  1.00  0.00     0.014 C
BRANCH  29  32
ATOM     32  C   UNL     1      32.217  15.585  -3.595  1.00  0.00     0.024 C
BRANCH  32  33
ATOM     33  C   UNL     1      31.072  16.592  -3.476  1.00  0.00     0.070 C
BRANCH  33  34
ATOM     34  S   UNL     1      31.413  18.123  -4.410  1.00  0.00    -0.162 SA
BRANCH  34  35
ATOM     35  C   UNL     1      29.756  18.436  -5.128  1.00  0.00     0.070 C
ATOM     36  G   UNL     1      28.709  17.483  -4.544  1.00  0.00     0.000 C
ENDBRANCH  34  35
ENDBRANCH  33  34
ENDBRANCH  32  33
ENDBRANCH  29  32
ENDBRANCH   7  29
TORSDOF 1
ENDMDL
