MODEL 1
REMARK VINA RESULT:      -8.3      0.000      0.000
REMARK SMILES Cc1cnc2nc1-c1cccc(c1)COCC1=CCOCc3cc(ccc3OCCN3CCC[C@@H]3CCC1)N2
REMARK SMILES IDX 22 1 23 2 24 3 25 4 26 5 27 6 39 7 5 9 2 10 3 11 7 12 4 13
REMARK SMILES IDX 6 14 1 15 8 16 9 17 13 18 10 19 12 20 11 21 14 22 15 23
REMARK SMILES IDX 16 24 21 26 20 27 19 28 18 29 17 30 38 32 37 33 36 34 28 36
REMARK SMILES IDX 29 37 30 38 31 39 32 40 35 41 33 42 34 43
REMARK H PARENT 39 8
REMARK Flexibility Score:  100.800
ROOT
ATOM      1  C   UNL     1      29.027  16.010  -4.895  1.00  0.00     0.022 A
ATOM      2  C   UNL     1      28.360  14.774  -4.890  1.00  0.00     0.036 A
ATOM      3  C   UNL     1      28.996  13.575  -5.237  1.00  0.00     0.042 A
ATOM      4  C   UNL     1      30.330  13.639  -5.652  1.00  0.00     0.030 A
ATOM      5  C   UNL     1      31.021  14.856  -5.658  1.00  0.00     0.049 A
ATOM      6  C   UNL     1      30.373  16.030  -5.270  1.00  0.00     0.125 A
ENDROOT
BRANCH   3   7
ATOM      7  N   UNL     1      28.386  12.327  -5.055  1.00  0.00    -0.324 N
ATOM      8  H   UNL     1      27.400  12.238  -5.236  1.00  0.00     0.170 HD
BRANCH   7   9
ATOM      9  C   UNL     1      28.967  11.084  -4.805  1.00  0.00     0.227 A
ATOM     10  C   UNL     1      30.201   8.656  -4.554  1.00  0.00    -0.006 A
ATOM     11  C   UNL     1      28.945   8.823  -5.114  1.00  0.00     0.120 A
ATOM     12  C   UNL     1      30.780   9.819  -4.072  1.00  0.00     0.079 A
ATOM     13  N   UNL     1      28.317  10.007  -5.256  1.00  0.00    -0.221 NA
ATOM     14  N   UNL     1      30.162  11.009  -4.213  1.00  0.00    -0.212 NA
ATOM     15  C   UNL     1      30.824   7.300  -4.509  1.00  0.00     0.048 C
BRANCH  12  16
ATOM     16  C   UNL     1      32.097   9.933  -3.406  1.00  0.00     0.001 A
ATOM     17  C   UNL     1      32.720   8.860  -2.752  1.00  0.00     0.010 A
ATOM     18  C   UNL     1      32.746  11.187  -3.348  1.00  0.00     0.016 A
ATOM     19  C   UNL     1      33.947   9.022  -2.097  1.00  0.00     0.001 A
ATOM     20  C   UNL     1      33.975  11.369  -2.692  1.00  0.00    -0.022 A
ATOM     21  C   UNL     1      34.570  10.270  -2.067  1.00  0.00     0.006 A
BRANCH  20  22
ATOM     22  C   UNL     1      34.611  12.736  -2.626  1.00  0.00     0.196 C
BRANCH  22  23
ATOM     23  O   UNL     1      33.604  13.725  -2.835  1.00  0.00    -0.372 OA
BRANCH  23  24
ATOM     24  C   UNL     1      34.146  15.021  -3.069  1.00  0.00     0.191 C
ATOM     25  G   UNL     1      35.598  15.053  -2.642  1.00  0.00     0.000 C
ENDBRANCH  23  24
ENDBRANCH  22  23
ENDBRANCH  20  22
ENDBRANCH  12  16
ENDBRANCH   7   9
ENDBRANCH   3   7
BRANCH   1  26
ATOM     26  C   UNL     1      28.266  17.264  -4.540  1.00  0.00     0.200 C
BRANCH  26  27
ATOM     27  O   UNL     1      27.188  17.451  -5.463  1.00  0.00    -0.373 OA
BRANCH  27  28
ATOM     28  C   UNL     1      27.603  17.997  -6.712  1.00  0.00     0.188 C
BRANCH  28  29
ATOM     29  C   UNL     1      27.246  17.098  -7.864  1.00  0.00     0.003 C
ATOM     30  C   UNL     1      26.295  17.325  -8.799  1.00  0.00    -0.046 C
ATOM     31  G   UNL     1      25.330  18.490  -8.743  1.00  0.00     0.000 C
BRANCH  30  32
ATOM     32  C   UNL     1      26.172  16.401  -9.996  1.00  0.00     0.033 C
BRANCH  32  33
ATOM     33  C   UNL     1      27.460  15.645 -10.370  1.00  0.00     0.006 C
BRANCH  33  34
ATOM     34  C   UNL     1      28.210  16.157 -11.615  1.00  0.00     0.019 C
ATOM     35  G   UNL     1      27.665  17.474 -12.205  1.00  0.00     0.000 C
ENDBRANCH  33  34
ENDBRANCH  32  33
ENDBRANCH  30  32
ENDBRANCH  28  29
ENDBRANCH  27  28
ENDBRANCH  26  27
ENDBRANCH   1  26
BRANCH   6  36
ATOM     36  O   UNL     1      31.106  17.172  -5.112  1.00  0.00    -0.492 OA
BRANCH  36  37
ATOM     37  C   UNL     1      31.479  17.767  -6.354  1.00  0.00     0.245 C
BRANCH  37  38
ATOM     38  C   UNL     1      31.395  19.298  -6.206  1.00  0.00     0.126 C
BRANCH  38  39
ATOM     39  N   UNL     1      32.243  19.757  -5.085  1.00  0.00    -0.297 NA
ATOM     40  C   UNL     1      31.486  20.588  -4.133  1.00  0.00     0.085 C
ATOM     41  C   UNL     1      33.400  20.614  -5.455  1.00  0.00     0.056 C
ATOM     42  C   UNL     1      31.593  22.017  -4.653  1.00  0.00     0.017 C
ATOM     43  C   UNL     1      32.795  22.014  -5.596  1.00  0.00     0.020 C
ATOM     44  G   UNL     1      34.257  20.185  -6.663  1.00  0.00     0.000 C
ENDBRANCH  38  39
ENDBRANCH  37  38
ENDBRANCH  36  37
ENDBRANCH   6  36
TORSDOF 0
ENDMDL
MODEL 2
REMARK VINA RESULT:      -8.1      2.514      5.918
REMARK SMILES Cc1cnc2nc1-c1cccc(c1)COCC1=CCOCc3cc(ccc3OCCN3CCC[C@@H]3CCC1)N2
REMARK SMILES IDX 22 1 23 2 24 3 25 4 26 5 27 6 39 7 5 9 2 10 3 11 7 12 4 13
REMARK SMILES IDX 6 14 1 15 8 16 9 17 13 18 10 19 12 20 11 21 14 22 15 23
REMARK SMILES IDX 16 24 21 26 20 27 19 28 18 29 17 30 38 32 37 33 36 34 28 36
REMARK SMILES IDX 29 37 30 38 31 39 32 40 35 41 33 42 34 43
REMARK H PARENT 39 8
REMARK Flexibility Score:  100.800
ROOT
ATOM      1  C   UNL     1      31.625  16.578  -4.638  1.00  0.00     0.022 A
ATOM      2  C   UNL     1      32.867  16.043  -4.257  1.00  0.00     0.036 A
ATOM      3  C   UNL     1      33.032  15.286  -3.090  1.00  0.00     0.042 A
ATOM      4  C   UNL     1      31.920  15.112  -2.260  1.00  0.00     0.030 A
ATOM      5  C   UNL     1      30.670  15.628  -2.621  1.00  0.00     0.049 A
ATOM      6  C   UNL     1      30.525  16.346  -3.809  1.00  0.00     0.125 A
ENDROOT
BRANCH   3   7
ATOM      7  N   UNL     1      34.221  14.600  -2.807  1.00  0.00    -0.324 N
ATOM      8  H   UNL     1      35.051  15.132  -2.606  1.00  0.00     0.170 HD
BRANCH   7   9
ATOM      9  C   UNL     1      34.429  13.239  -2.590  1.00  0.00     0.227 A
ATOM     10  C   UNL     1      34.733  10.602  -1.931  1.00  0.00    -0.006 A
ATOM     11  C   UNL     1      35.645  11.586  -1.590  1.00  0.00     0.120 A
ATOM     12  C   UNL     1      33.661  11.042  -2.690  1.00  0.00     0.079 A
ATOM     13  N   UNL     1      35.518  12.893  -1.896  1.00  0.00    -0.221 NA
ATOM     14  N   UNL     1      33.521  12.348  -2.997  1.00  0.00    -0.212 NA
ATOM     15  C   UNL     1      34.950   9.195  -1.481  1.00  0.00     0.048 C
BRANCH  12  16
ATOM     16  C   UNL     1      32.554  10.210  -3.213  1.00  0.00     0.001 A
ATOM     17  C   UNL     1      32.548   8.809  -3.137  1.00  0.00     0.010 A
ATOM     18  C   UNL     1      31.475  10.823  -3.888  1.00  0.00     0.016 A
ATOM     19  C   UNL     1      31.501   8.057  -3.684  1.00  0.00     0.001 A
ATOM     20  C   UNL     1      30.418  10.084  -4.446  1.00  0.00    -0.022 A
ATOM     21  C   UNL     1      30.443   8.692  -4.335  1.00  0.00     0.006 A
BRANCH  20  22
ATOM     22  C   UNL     1      29.307  10.783  -5.190  1.00  0.00     0.196 C
BRANCH  22  23
ATOM     23  O   UNL     1      28.613   9.827  -5.990  1.00  0.00    -0.372 OA
BRANCH  23  24
ATOM     24  C   UNL     1      27.333   9.492  -5.461  1.00  0.00     0.191 C
ATOM     25  G   UNL     1      26.754   8.321  -6.226  1.00  0.00     0.000 C
ENDBRANCH  23  24
ENDBRANCH  22  23
ENDBRANCH  20  22
ENDBRANCH  12  16
ENDBRANCH   7   9
ENDBRANCH   3   7
BRANCH   1  26
ATOM     26  C   UNL     1      31.532  17.412  -5.893  1.00  0.00     0.200 C
BRANCH  26  27
ATOM     27  O   UNL     1      32.119  18.698  -5.662  1.00  0.00    -0.373 OA
BRANCH  27  28
ATOM     28  C   UNL     1      31.331  19.775  -6.163  1.00  0.00     0.188 C
BRANCH  28  29
ATOM     29  C   UNL     1      29.863  19.449  -6.152  1.00  0.00     0.003 C
ATOM     30  C   UNL     1      28.851  20.276  -6.499  1.00  0.00    -0.046 C
ATOM     31  G   UNL     1      29.046  21.741  -6.831  1.00  0.00     0.000 C
BRANCH  30  32
ATOM     32  C   UNL     1      27.434  19.744  -6.597  1.00  0.00     0.033 C
BRANCH  32  33
ATOM     33  C   UNL     1      27.052  19.157  -7.968  1.00  0.00     0.006 C
BRANCH  33  34
ATOM     34  C   UNL     1      26.713  20.177  -9.072  1.00  0.00     0.019 C
ATOM     35  G   UNL     1      26.711  19.606 -10.505  1.00  0.00     0.000 C
ENDBRANCH  33  34
ENDBRANCH  32  33
ENDBRANCH  30  32
ENDBRANCH  28  29
ENDBRANCH  27  28
ENDBRANCH  26  27
ENDBRANCH   1  26
BRANCH   6  36
ATOM     36  O   UNL     1      29.271  16.687  -4.231  1.00  0.00    -0.492 OA
BRANCH  36  37
ATOM     37  C   UNL     1      28.554  15.585  -4.784  1.00  0.00     0.245 C
BRANCH  37  38
ATOM     38  C   UNL     1      27.805  16.071  -6.040  1.00  0.00     0.126 C
BRANCH  38  39
ATOM     39  N   UNL     1      26.398  15.617  -6.012  1.00  0.00    -0.297 NA
ATOM     40  C   UNL     1      26.178  14.590  -4.979  1.00  0.00     0.085 C
ATOM     41  C   UNL     1      25.898  14.977  -7.256  1.00  0.00     0.056 C
ATOM     42  C   UNL     1      26.479  13.256  -5.651  1.00  0.00     0.017 C
ATOM     43  C   UNL     1      26.387  13.530  -7.152  1.00  0.00     0.020 C
ATOM     44  G   UNL     1      26.240  15.651  -8.600  1.00  0.00     0.000 C
ENDBRANCH  38  39
ENDBRANCH  37  38
ENDBRANCH  36  37
ENDBRANCH   6  36
TORSDOF 0
ENDMDL
MODEL 3
REMARK VINA RESULT:      -8.0      2.556     10.133
REMARK SMILES Cc1cnc2nc1-c1cccc(c1)COCC1=CCOCc3cc(ccc3OCCN3CCC[C@@H]3CCC1)N2
REMARK SMILES IDX 22 1 23 2 24 3 25 4 26 5 27 6 39 7 5 9 2 10 3 11 7 12 4 13
REMARK SMILES IDX 6 14 1 15 8 16 9 17 13 18 10 19 12 20 11 21 14 22 15 23
REMARK SMILES IDX 16 24 21 26 20 27 19 28 18 29 17 30 38 32 37 33 36 34 28 36
REMARK SMILES IDX 29 37 30 38 31 39 32 40 35 41 33 42 34 43
REMARK H PARENT 39 8
REMARK Flexibility Score:  100.800
ROOT
ATOM      1  C   UNL     1      29.236  13.438  -4.615  1.00  0.00     0.022 A
ATOM      2  C   UNL     1      28.797  14.772  -4.560  1.00  0.00     0.036 A
ATOM      3  C   UNL     1      27.656  15.216  -5.240  1.00  0.00     0.042 A
ATOM      4  C   UNL     1      26.971  14.294  -6.039  1.00  0.00     0.030 A
ATOM      5  C   UNL     1      27.382  12.958  -6.105  1.00  0.00     0.049 A
ATOM      6  C   UNL     1      28.501  12.534  -5.386  1.00  0.00     0.125 A
ENDROOT
BRANCH   3   7
ATOM      7  N   UNL     1      27.116  16.493  -5.038  1.00  0.00    -0.324 N
ATOM      8  H   UNL     1      26.606  16.674  -4.190  1.00  0.00     0.170 HD
BRANCH   7   9
ATOM      9  C   UNL     1      27.307  17.663  -5.772  1.00  0.00     0.227 A
ATOM     10  C   UNL     1      27.577  20.084  -7.015  1.00  0.00    -0.006 A
ATOM     11  C   UNL     1      26.419  19.325  -7.059  1.00  0.00     0.120 A
ATOM     12  C   UNL     1      28.629  19.498  -6.330  1.00  0.00     0.079 A
ATOM     13  N   UNL     1      26.256  18.133  -6.450  1.00  0.00    -0.221 NA
ATOM     14  N   UNL     1      28.475  18.308  -5.714  1.00  0.00    -0.212 NA
ATOM     15  C   UNL     1      27.617  21.422  -7.676  1.00  0.00     0.048 C
BRANCH  12  16
ATOM     16  C   UNL     1      29.983  20.066  -6.146  1.00  0.00     0.001 A
ATOM     17  C   UNL     1      30.210  21.408  -5.804  1.00  0.00     0.010 A
ATOM     18  C   UNL     1      31.119  19.263  -6.390  1.00  0.00     0.016 A
ATOM     19  C   UNL     1      31.508  21.916  -5.682  1.00  0.00     0.001 A
ATOM     20  C   UNL     1      32.430  19.757  -6.276  1.00  0.00    -0.022 A
ATOM     21  C   UNL     1      32.611  21.095  -5.918  1.00  0.00     0.006 A
BRANCH  20  22
ATOM     22  C   UNL     1      33.610  18.869  -6.582  1.00  0.00     0.196 C
BRANCH  22  23
ATOM     23  O   UNL     1      33.149  17.706  -7.267  1.00  0.00    -0.372 OA
BRANCH  23  24
ATOM     24  C   UNL     1      33.472  16.500  -6.581  1.00  0.00     0.191 C
ATOM     25  G   UNL     1      32.202  15.745  -6.249  1.00  0.00     0.000 C
ENDBRANCH  23  24
ENDBRANCH  22  23
ENDBRANCH  20  22
ENDBRANCH  12  16
ENDBRANCH   7   9
ENDBRANCH   3   7
BRANCH   1  26
ATOM     26  C   UNL     1      30.494  13.042  -3.882  1.00  0.00     0.200 C
BRANCH  26  27
ATOM     27  O   UNL     1      31.150  14.212  -3.382  1.00  0.00    -0.373 OA
BRANCH  27  28
ATOM     28  C   UNL     1      32.403  13.935  -2.762  1.00  0.00     0.188 C
BRANCH  28  29
ATOM     29  C   UNL     1      32.901  12.556  -3.094  1.00  0.00     0.003 C
ATOM     30  C   UNL     1      34.114  12.041  -2.790  1.00  0.00    -0.046 C
ATOM     31  G   UNL     1      35.233  12.850  -2.169  1.00  0.00     0.000 C
BRANCH  30  32
ATOM     32  C   UNL     1      34.403  10.574  -3.046  1.00  0.00     0.033 C
BRANCH  32  33
ATOM     33  C   UNL     1      33.815   9.603  -2.005  1.00  0.00     0.006 C
BRANCH  33  34
ATOM     34  C   UNL     1      32.764   8.604  -2.527  1.00  0.00     0.019 C
ATOM     35  G   UNL     1      31.715   9.207  -3.484  1.00  0.00     0.000 C
ENDBRANCH  33  34
ENDBRANCH  32  33
ENDBRANCH  30  32
ENDBRANCH  28  29
ENDBRANCH  27  28
ENDBRANCH  26  27
ENDBRANCH   1  26
BRANCH   6  36
ATOM     36  O   UNL     1      28.782  11.199  -5.320  1.00  0.00    -0.492 OA
BRANCH  36  37
ATOM     37  C   UNL     1      27.617  10.396  -5.134  1.00  0.00     0.245 C
BRANCH  37  38
ATOM     38  C   UNL     1      27.605   9.297  -6.214  1.00  0.00     0.126 C
BRANCH  38  39
ATOM     39  N   UNL     1      27.903   7.979  -5.614  1.00  0.00    -0.297 NA
ATOM     40  C   UNL     1      29.154   7.409  -6.144  1.00  0.00     0.085 C
ATOM     41  C   UNL     1      26.900   6.911  -5.862  1.00  0.00     0.056 C
ATOM     42  C   UNL     1      28.758   6.628  -7.391  1.00  0.00     0.017 C
ATOM     43  C   UNL     1      27.257   6.380  -7.253  1.00  0.00     0.020 C
ATOM     44  G   UNL     1      25.409   7.273  -5.701  1.00  0.00     0.000 C
ENDBRANCH  38  39
ENDBRANCH  37  38
ENDBRANCH  36  37
ENDBRANCH   6  36
TORSDOF 0
ENDMDL
MODEL 4
REMARK VINA RESULT:      -7.9      2.930      8.697
REMARK SMILES Cc1cnc2nc1-c1cccc(c1)COCC1=CCOCc3cc(ccc3OCCN3CCC[C@@H]3CCC1)N2
REMARK SMILES IDX 22 1 23 2 24 3 25 4 26 5 27 6 39 7 5 9 2 10 3 11 7 12 4 13
REMARK SMILES IDX 6 14 1 15 8 16 9 17 13 18 10 19 12 20 11 21 14 22 15 23
REMARK SMILES IDX 16 24 21 26 20 27 19 28 18 29 17 30 38 32 37 33 36 34 28 36
REMARK SMILES IDX 29 37 30 38 31 39 32 40 35 41 33 42 34 43
REMARK H PARENT 39 8
REMARK Flexibility Score:  100.800
ROOT
ATOM      1  C   UNL     1      29.593  10.733  -4.754  1.00  0.00     0.022 A
ATOM      2  C   UNL     1      30.756  10.908  -3.986  1.00  0.00     0.036 A
ATOM      3  C   UNL     1      31.632   9.854  -3.696  1.00  0.00     0.042 A
ATOM      4  C   UNL     1      31.290   8.577  -4.152  1.00  0.00     0.030 A
ATOM      5  C   UNL     1      30.142   8.376  -4.926  1.00  0.00     0.049 A
ATOM      6  C   UNL     1      29.307   9.452  -5.232  1.00  0.00     0.125 A
ENDROOT
BRANCH   3   7
ATOM      7  N   UNL     1      32.878  10.063  -3.092  1.00  0.00    -0.324 N
ATOM      8  H   UNL     1      33.468   9.269  -2.911  1.00  0.00     0.170 HD
BRANCH   7   9
ATOM      9  C   UNL     1      33.547  11.258  -2.829  1.00  0.00     0.227 A
ATOM     10  C   UNL     1      34.952  13.588  -2.550  1.00  0.00    -0.006 A
ATOM     11  C   UNL     1      35.496  12.334  -2.328  1.00  0.00     0.120 A
ATOM     12  C   UNL     1      33.606  13.586  -2.878  1.00  0.00     0.079 A
ATOM     13  N   UNL     1      34.829  11.170  -2.464  1.00  0.00    -0.221 NA
ATOM     14  N   UNL     1      32.931  12.428  -3.022  1.00  0.00    -0.212 NA
ATOM     15  C   UNL     1      35.809  14.805  -2.430  1.00  0.00     0.048 C
BRANCH  12  16
ATOM     16  C   UNL     1      32.765  14.775  -3.144  1.00  0.00     0.001 A
ATOM     17  C   UNL     1      31.630  15.095  -2.384  1.00  0.00     0.010 A
ATOM     18  C   UNL     1      33.053  15.603  -4.251  1.00  0.00     0.016 A
ATOM     19  C   UNL     1      30.837  16.206  -2.696  1.00  0.00     0.001 A
ATOM     20  C   UNL     1      32.266  16.720  -4.582  1.00  0.00    -0.022 A
ATOM     21  C   UNL     1      31.154  17.013  -3.790  1.00  0.00     0.006 A
BRANCH  20  22
ATOM     22  C   UNL     1      32.594  17.553  -5.797  1.00  0.00     0.196 C
BRANCH  22  23
ATOM     23  O   UNL     1      33.026  18.844  -5.370  1.00  0.00    -0.372 OA
BRANCH  23  24
ATOM     24  C   UNL     1      32.328  19.901  -6.023  1.00  0.00     0.191 C
ATOM     25  G   UNL     1      33.154  21.169  -5.967  1.00  0.00     0.000 C
ENDBRANCH  23  24
ENDBRANCH  22  23
ENDBRANCH  20  22
ENDBRANCH  12  16
ENDBRANCH   7   9
ENDBRANCH   3   7
BRANCH   1  26
ATOM     26  C   UNL     1      28.681  11.911  -4.996  1.00  0.00     0.200 C
BRANCH  26  27
ATOM     27  O   UNL     1      29.459  13.106  -5.122  1.00  0.00    -0.373 OA
BRANCH  27  28
ATOM     28  C   UNL     1      29.143  13.864  -6.287  1.00  0.00     0.188 C
BRANCH  28  29
ATOM     29  C   UNL     1      28.881  15.309  -5.962  1.00  0.00     0.003 C
ATOM     30  C   UNL     1      27.794  15.809  -5.332  1.00  0.00    -0.046 C
ATOM     31  G   UNL     1      26.582  14.977  -4.970  1.00  0.00     0.000 C
BRANCH  30  32
ATOM     32  C   UNL     1      27.756  17.271  -4.927  1.00  0.00     0.033 C
BRANCH  32  33
ATOM     33  C   UNL     1      28.530  18.224  -5.856  1.00  0.00     0.006 C
BRANCH  33  34
ATOM     34  C   UNL     1      27.828  19.551  -6.203  1.00  0.00     0.019 C
ATOM     35  G   UNL     1      28.715  20.585  -6.928  1.00  0.00     0.000 C
ENDBRANCH  33  34
ENDBRANCH  32  33
ENDBRANCH  30  32
ENDBRANCH  28  29
ENDBRANCH  27  28
ENDBRANCH  26  27
ENDBRANCH   1  26
BRANCH   6  36
ATOM     36  O   UNL     1      28.294   9.273  -6.131  1.00  0.00    -0.492 OA
BRANCH  36  37
ATOM     37  C   UNL     1      27.309   8.346  -5.677  1.00  0.00     0.245 C
BRANCH  37  38
ATOM     38  C   UNL     1      27.064   7.310  -6.792  1.00  0.00     0.126 C
BRANCH  38  39
ATOM     39  N   UNL     1      27.901   6.110  -6.575  1.00  0.00    -0.297 NA
ATOM     40  C   UNL     1      28.679   5.765  -7.777  1.00  0.00     0.085 C
ATOM     41  C   UNL     1      27.169   4.856  -6.260  1.00  0.00     0.056 C
ATOM     42  C   UNL     1      27.781   4.853  -8.605  1.00  0.00     0.017 C
ATOM     43  C   UNL     1      26.730   4.327  -7.628  1.00  0.00     0.020 C
ATOM     44  G   UNL     1      26.024   4.931  -5.229  1.00  0.00     0.000 C
ENDBRANCH  38  39
ENDBRANCH  37  38
ENDBRANCH  36  37
ENDBRANCH   6  36
TORSDOF 0
ENDMDL
MODEL 5
REMARK VINA RESULT:      -7.9      2.896      8.471
REMARK SMILES Cc1cnc2nc1-c1cccc(c1)COCC1=CCOCc3cc(ccc3OCCN3CCC[C@@H]3CCC1)N2
REMARK SMILES IDX 22 1 23 2 24 3 25 4 26 5 27 6 39 7 5 9 2 10 3 11 7 12 4 13
REMARK SMILES IDX 6 14 1 15 8 16 9 17 13 18 10 19 12 20 11 21 14 22 15 23
REMARK SMILES IDX 16 24 21 26 20 27 19 28 18 29 17 30 38 32 37 33 36 34 28 36
REMARK SMILES IDX 29 37 30 38 31 39 32 40 35 41 33 42 34 43
REMARK H PARENT 39 8
REMARK Flexibility Score:  100.800
ROOT
ATOM      1  C   UNL     1      29.790  10.114  -4.440  1.00  0.00     0.022 A
ATOM      2  C   UNL     1      30.923  10.424  -3.669  1.00  0.00     0.036 A
ATOM      3  C   UNL     1      31.906   9.475  -3.361  1.00  0.00     0.042 A
ATOM      4  C   UNL     1      31.708   8.163  -3.802  1.00  0.00     0.030 A
ATOM      5  C   UNL     1      30.593   7.828  -4.578  1.00  0.00     0.049 A
ATOM      6  C   UNL     1      29.648   8.803  -4.902  1.00  0.00     0.125 A
ENDROOT
BRANCH   3   7
ATOM      7  N   UNL     1      33.119   9.827  -2.755  1.00  0.00    -0.324 N
ATOM      8  H   UNL     1      33.746   9.095  -2.466  1.00  0.00     0.170 HD
BRANCH   7   9
ATOM      9  C   UNL     1      33.711  11.082  -2.618  1.00  0.00     0.227 A
ATOM     10  C   UNL     1      34.942  13.524  -2.596  1.00  0.00    -0.006 A
ATOM     11  C   UNL     1      35.607  12.329  -2.380  1.00  0.00     0.120 A
ATOM     12  C   UNL     1      33.573  13.402  -2.774  1.00  0.00     0.079 A
ATOM     13  N   UNL     1      35.028  11.112  -2.392  1.00  0.00    -0.221 NA
ATOM     14  N   UNL     1      32.984  12.189  -2.793  1.00  0.00    -0.212 NA
ATOM     15  C   UNL     1      35.703  14.808  -2.623  1.00  0.00     0.048 C
BRANCH  12  16
ATOM     16  C   UNL     1      32.614  14.507  -2.997  1.00  0.00     0.001 A
ATOM     17  C   UNL     1      31.513  14.745  -2.161  1.00  0.00     0.010 A
ATOM     18  C   UNL     1      32.748  15.332  -4.136  1.00  0.00     0.016 A
ATOM     19  C   UNL     1      30.605  15.776  -2.432  1.00  0.00     0.001 A
ATOM     20  C   UNL     1      31.844  16.368  -4.427  1.00  0.00    -0.022 A
ATOM     21  C   UNL     1      30.770  16.581  -3.559  1.00  0.00     0.006 A
BRANCH  20  22
ATOM     22  C   UNL     1      32.009  17.198  -5.676  1.00  0.00     0.196 C
BRANCH  22  23
ATOM     23  O   UNL     1      32.913  16.533  -6.556  1.00  0.00    -0.372 OA
BRANCH  23  24
ATOM     24  C   UNL     1      33.853  17.423  -7.153  1.00  0.00     0.191 C
ATOM     25  G   UNL     1      33.571  18.841  -6.705  1.00  0.00     0.000 C
ENDBRANCH  23  24
ENDBRANCH  22  23
ENDBRANCH  20  22
ENDBRANCH  12  16
ENDBRANCH   7   9
ENDBRANCH   3   7
BRANCH   1  26
ATOM     26  C   UNL     1      28.757  11.182  -4.702  1.00  0.00     0.200 C
BRANCH  26  27
ATOM     27  O   UNL     1      29.407  12.404  -5.067  1.00  0.00    -0.373 OA
BRANCH  27  28
ATOM     28  C   UNL     1      28.605  13.559  -4.841  1.00  0.00     0.188 C
BRANCH  28  29
ATOM     29  C   UNL     1      28.889  14.644  -5.842  1.00  0.00     0.003 C
ATOM     30  C   UNL     1      28.189  15.790  -6.010  1.00  0.00    -0.046 C
ATOM     31  G   UNL     1      26.896  16.093  -5.283  1.00  0.00     0.000 C
BRANCH  30  32
ATOM     32  C   UNL     1      28.704  16.864  -6.950  1.00  0.00     0.033 C
BRANCH  32  33
ATOM     33  C   UNL     1      27.910  18.183  -6.928  1.00  0.00     0.006 C
BRANCH  33  34
ATOM     34  C   UNL     1      28.430  19.272  -5.969  1.00  0.00     0.019 C
ATOM     35  G   UNL     1      29.757  19.933  -6.397  1.00  0.00     0.000 C
ENDBRANCH  33  34
ENDBRANCH  32  33
ENDBRANCH  30  32
ENDBRANCH  28  29
ENDBRANCH  27  28
ENDBRANCH  26  27
ENDBRANCH   1  26
BRANCH   6  36
ATOM     36  O   UNL     1      28.665   8.503  -5.803  1.00  0.00    -0.492 OA
BRANCH  36  37
ATOM     37  C   UNL     1      29.151   8.403  -7.141  1.00  0.00     0.245 C
BRANCH  37  38
ATOM     38  C   UNL     1      28.026   7.834  -8.027  1.00  0.00     0.126 C
BRANCH  38  39
ATOM     39  N   UNL     1      27.201   6.873  -7.263  1.00  0.00    -0.297 NA
ATOM     40  C   UNL     1      27.727   5.502  -7.365  1.00  0.00     0.085 C
ATOM     41  C   UNL     1      25.787   6.740  -7.699  1.00  0.00     0.056 C
ATOM     42  C   UNL     1      27.079   4.901  -8.606  1.00  0.00     0.017 C
ATOM     43  C   UNL     1      25.854   5.771  -8.883  1.00  0.00     0.020 C
ATOM     44  G   UNL     1      25.002   8.033  -8.001  1.00  0.00     0.000 C
ENDBRANCH  38  39
ENDBRANCH  37  38
ENDBRANCH  36  37
ENDBRANCH   6  36
TORSDOF 0
ENDMDL
MODEL 6
REMARK VINA RESULT:      -7.7      1.832      5.053
REMARK SMILES Cc1cnc2nc1-c1cccc(c1)COCC1=CCOCc3cc(ccc3OCCN3CCC[C@@H]3CCC1)N2
REMARK SMILES IDX 22 1 23 2 24 3 25 4 26 5 27 6 39 7 5 9 2 10 3 11 7 12 4 13
REMARK SMILES IDX 6 14 1 15 8 16 9 17 13 18 10 19 12 20 11 21 14 22 15 23
REMARK SMILES IDX 16 24 21 26 20 27 19 28 18 29 17 30 38 32 37 33 36 34 28 36
REMARK SMILES IDX 29 37 30 38 31 39 32 40 35 41 33 42 34 43
REMARK H PARENT 39 8
REMARK Flexibility Score:  100.800
ROOT
ATOM      1  C   UNL     1      28.855  15.241  -5.836  1.00  0.00     0.022 A
ATOM      2  C   UNL     1      28.652  13.884  -6.137  1.00  0.00     0.036 A
ATOM      3  C   UNL     1      27.453  13.220  -5.845  1.00  0.00     0.042 A
ATOM      4  C   UNL     1      26.453  13.939  -5.182  1.00  0.00     0.030 A
ATOM      5  C   UNL     1      26.626  15.294  -4.878  1.00  0.00     0.049 A
ATOM      6  C   UNL     1      27.816  15.940  -5.215  1.00  0.00     0.125 A
ENDROOT
BRANCH   3   7
ATOM      7  N   UNL     1      27.185  11.926  -6.310  1.00  0.00    -0.324 N
ATOM      8  H   UNL     1      26.553  11.811  -7.084  1.00  0.00     0.170 HD
BRANCH   7   9
ATOM      9  C   UNL     1      27.793  10.718  -5.971  1.00  0.00     0.227 A
ATOM     10  C   UNL     1      29.103   8.357  -5.534  1.00  0.00    -0.006 A
ATOM     11  C   UNL     1      27.901   8.452  -6.215  1.00  0.00     0.120 A
ATOM     12  C   UNL     1      29.581   9.557  -5.032  1.00  0.00     0.079 A
ATOM     13  N   UNL     1      27.237   9.602  -6.450  1.00  0.00    -0.221 NA
ATOM     14  N   UNL     1      28.928  10.713  -5.266  1.00  0.00    -0.212 NA
ATOM     15  C   UNL     1      29.777   7.033  -5.391  1.00  0.00     0.048 C
BRANCH  12  16
ATOM     16  C   UNL     1      30.822   9.749  -4.248  1.00  0.00     0.001 A
ATOM     17  C   UNL     1      31.376   8.748  -3.435  1.00  0.00     0.010 A
ATOM     18  C   UNL     1      31.458  11.009  -4.242  1.00  0.00     0.016 A
ATOM     19  C   UNL     1      32.528   8.985  -2.676  1.00  0.00     0.001 A
ATOM     20  C   UNL     1      32.613  11.267  -3.483  1.00  0.00    -0.022 A
ATOM     21  C   UNL     1      33.141  10.238  -2.699  1.00  0.00     0.006 A
BRANCH  20  22
ATOM     22  C   UNL     1      33.235  12.641  -3.480  1.00  0.00     0.196 C
BRANCH  22  23
ATOM     23  O   UNL     1      34.124  12.745  -2.370  1.00  0.00    -0.372 OA
BRANCH  23  24
ATOM     24  C   UNL     1      35.195  13.656  -2.605  1.00  0.00     0.191 C
ATOM     25  G   UNL     1      34.638  15.036  -2.885  1.00  0.00     0.000 C
ENDBRANCH  23  24
ENDBRANCH  22  23
ENDBRANCH  20  22
ENDBRANCH  12  16
ENDBRANCH   7   9
ENDBRANCH   3   7
BRANCH   1  26
ATOM     26  C   UNL     1      30.186  15.879  -6.150  1.00  0.00     0.200 C
BRANCH  26  27
ATOM     27  O   UNL     1      31.234  14.920  -5.974  1.00  0.00    -0.373 OA
BRANCH  27  28
ATOM     28  C   UNL     1      32.522  15.512  -5.831  1.00  0.00     0.188 C
BRANCH  28  29
ATOM     29  C   UNL     1      32.436  16.934  -5.350  1.00  0.00     0.003 C
ATOM     30  C   UNL     1      33.167  17.982  -5.795  1.00  0.00    -0.046 C
ATOM     31  G   UNL     1      34.309  17.845  -6.780  1.00  0.00     0.000 C
BRANCH  30  32
ATOM     32  C   UNL     1      32.843  19.387  -5.326  1.00  0.00     0.033 C
BRANCH  32  33
ATOM     33  C   UNL     1      31.392  19.599  -4.855  1.00  0.00     0.006 C
BRANCH  33  34
ATOM     34  C   UNL     1      30.846  21.036  -4.962  1.00  0.00     0.019 C
ATOM     35  G   UNL     1      29.893  21.281  -6.150  1.00  0.00     0.000 C
ENDBRANCH  33  34
ENDBRANCH  32  33
ENDBRANCH  30  32
ENDBRANCH  28  29
ENDBRANCH  27  28
ENDBRANCH  26  27
ENDBRANCH   1  26
BRANCH   6  36
ATOM     36  O   UNL     1      27.899  17.297  -5.073  1.00  0.00    -0.492 OA
BRANCH  36  37
ATOM     37  C   UNL     1      28.005  17.979  -6.322  1.00  0.00     0.245 C
BRANCH  37  38
ATOM     38  C   UNL     1      26.602  18.064  -6.951  1.00  0.00     0.126 C
BRANCH  38  39
ATOM     39  N   UNL     1      26.694  18.044  -8.427  1.00  0.00    -0.297 NA
ATOM     40  C   UNL     1      26.230  19.310  -9.019  1.00  0.00     0.085 C
ATOM     41  C   UNL     1      25.874  17.014  -9.115  1.00  0.00     0.056 C
ATOM     42  C   UNL     1      24.728  19.147  -9.222  1.00  0.00     0.017 C
ATOM     43  C   UNL     1      24.479  17.639  -9.192  1.00  0.00     0.020 C
ATOM     44  G   UNL     1      25.880  15.584  -8.536  1.00  0.00     0.000 C
ENDBRANCH  38  39
ENDBRANCH  37  38
ENDBRANCH  36  37
ENDBRANCH   6  36
TORSDOF 0
ENDMDL
MODEL 7
REMARK VINA RESULT:      -7.7      1.472      2.067
REMARK SMILES Cc1cnc2nc1-c1cccc(c1)COCC1=CCOCc3cc(ccc3OCCN3CCC[C@@H]3CCC1)N2
REMARK SMILES IDX 22 1 23 2 24 3 25 4 26 5 27 6 39 7 5 9 2 10 3 11 7 12 4 13
REMARK SMILES IDX 6 14 1 15 8 16 9 17 13 18 10 19 12 20 11 21 14 22 15 23
REMARK SMILES IDX 16 24 21 26 20 27 19 28 18 29 17 30 38 32 37 33 36 34 28 36
REMARK SMILES IDX 29 37 30 38 31 39 32 40 35 41 33 42 34 43
REMARK H PARENT 39 8
REMARK Flexibility Score:  100.800
ROOT
ATOM      1  C   UNL     1      27.844  16.055  -6.217  1.00  0.00     0.022 A
ATOM      2  C   UNL     1      27.343  14.797  -5.843  1.00  0.00     0.036 A
ATOM      3  C   UNL     1      28.179  13.709  -5.561  1.00  0.00     0.042 A
ATOM      4  C   UNL     1      29.558  13.886  -5.716  1.00  0.00     0.030 A
ATOM      5  C   UNL     1      30.084  15.131  -6.080  1.00  0.00     0.049 A
ATOM      6  C   UNL     1      29.229  16.209  -6.317  1.00  0.00     0.125 A
ENDROOT
BRANCH   3   7
ATOM      7  N   UNL     1      27.692  12.516  -5.011  1.00  0.00    -0.324 N
ATOM      8  H   UNL     1      26.739  12.484  -4.691  1.00  0.00     0.170 HD
BRANCH   7   9
ATOM      9  C   UNL     1      28.280  11.252  -4.971  1.00  0.00     0.227 A
ATOM     10  C   UNL     1      29.531   8.825  -5.126  1.00  0.00    -0.006 A
ATOM     11  C   UNL     1      28.284   9.079  -5.669  1.00  0.00     0.120 A
ATOM     12  C   UNL     1      30.092   9.889  -4.438  1.00  0.00     0.079 A
ATOM     13  N   UNL     1      27.647  10.266  -5.614  1.00  0.00    -0.221 NA
ATOM     14  N   UNL     1      29.466  11.083  -4.381  1.00  0.00    -0.212 NA
ATOM     15  C   UNL     1      30.165   7.486  -5.306  1.00  0.00     0.048 C
BRANCH  12  16
ATOM     16  C   UNL     1      31.397   9.894  -3.739  1.00  0.00     0.001 A
ATOM     17  C   UNL     1      31.842   8.829  -2.941  1.00  0.00     0.010 A
ATOM     18  C   UNL     1      32.221  11.039  -3.802  1.00  0.00     0.016 A
ATOM     19  C   UNL     1      33.065   8.892  -2.263  1.00  0.00     0.001 A
ATOM     20  C   UNL     1      33.450  11.122  -3.125  1.00  0.00    -0.022 A
ATOM     21  C   UNL     1      33.863  10.033  -2.354  1.00  0.00     0.006 A
BRANCH  20  22
ATOM     22  C   UNL     1      34.277  12.382  -3.193  1.00  0.00     0.196 C
BRANCH  22  23
ATOM     23  O   UNL     1      33.840  13.278  -2.173  1.00  0.00    -0.372 OA
BRANCH  23  24
ATOM     24  C   UNL     1      32.725  14.069  -2.576  1.00  0.00     0.191 C
ATOM     25  G   UNL     1      33.208  15.275  -3.354  1.00  0.00     0.000 C
ENDBRANCH  23  24
ENDBRANCH  22  23
ENDBRANCH  20  22
ENDBRANCH  12  16
ENDBRANCH   7   9
ENDBRANCH   3   7
BRANCH   1  26
ATOM     26  C   UNL     1      26.880  17.171  -6.538  1.00  0.00     0.200 C
BRANCH  26  27
ATOM     27  O   UNL     1      25.996  16.758  -7.586  1.00  0.00    -0.373 OA
BRANCH  27  28
ATOM     28  C   UNL     1      26.567  16.880  -8.885  1.00  0.00     0.188 C
BRANCH  28  29
ATOM     29  C   UNL     1      26.005  15.866  -9.843  1.00  0.00     0.003 C
ATOM     30  C   UNL     1      26.648  15.303 -10.891  1.00  0.00    -0.046 C
ATOM     31  G   UNL     1      28.028  15.725 -11.348  1.00  0.00     0.000 C
BRANCH  30  32
ATOM     32  C   UNL     1      25.998  14.169 -11.661  1.00  0.00     0.033 C
BRANCH  32  33
ATOM     33  C   UNL     1      25.538  12.977 -10.801  1.00  0.00     0.006 C
BRANCH  33  34
ATOM     34  C   UNL     1      26.648  12.204 -10.064  1.00  0.00     0.019 C
ATOM     35  G   UNL     1      26.561  12.254  -8.524  1.00  0.00     0.000 C
ENDBRANCH  33  34
ENDBRANCH  32  33
ENDBRANCH  30  32
ENDBRANCH  28  29
ENDBRANCH  27  28
ENDBRANCH  26  27
ENDBRANCH   1  26
BRANCH   6  36
ATOM     36  O   UNL     1      29.764  17.454  -6.497  1.00  0.00    -0.492 OA
BRANCH  36  37
ATOM     37  C   UNL     1      30.037  18.122  -5.266  1.00  0.00     0.245 C
BRANCH  37  38
ATOM     38  C   UNL     1      30.570  19.532  -5.586  1.00  0.00     0.126 C
BRANCH  38  39
ATOM     39  N   UNL     1      31.690  19.878  -4.684  1.00  0.00    -0.297 NA
ATOM     40  C   UNL     1      31.592  21.268  -4.204  1.00  0.00     0.085 C
ATOM     41  C   UNL     1      33.049  19.808  -5.279  1.00  0.00     0.056 C
ATOM     42  C   UNL     1      32.314  22.117  -5.243  1.00  0.00     0.017 C
ATOM     43  C   UNL     1      33.203  21.142  -6.014  1.00  0.00     0.020 C
ATOM     44  G   UNL     1      33.392  18.579  -6.147  1.00  0.00     0.000 C
ENDBRANCH  38  39
ENDBRANCH  37  38
ENDBRANCH  36  37
ENDBRANCH   6  36
TORSDOF 0
ENDMDL
MODEL 8
REMARK VINA RESULT:      -7.7      2.580      6.559
REMARK SMILES Cc1cnc2nc1-c1cccc(c1)COCC1=CCOCc3cc(ccc3OCCN3CCC[C@@H]3CCC1)N2
REMARK SMILES IDX 22 1 23 2 24 3 25 4 26 5 27 6 39 7 5 9 2 10 3 11 7 12 4 13
REMARK SMILES IDX 6 14 1 15 8 16 9 17 13 18 10 19 12 20 11 21 14 22 15 23
REMARK SMILES IDX 16 24 21 26 20 27 19 28 18 29 17 30 38 32 37 33 36 34 28 36
REMARK SMILES IDX 29 37 30 38 31 39 32 40 35 41 33 42 34 43
REMARK H PARENT 39 8
REMARK Flexibility Score:  100.800
ROOT
ATOM      1  C   UNL     1      32.207  16.599  -5.190  1.00  0.00     0.022 A
ATOM      2  C   UNL     1      33.211  15.939  -4.461  1.00  0.00     0.036 A
ATOM      3  C   UNL     1      32.986  15.405  -3.186  1.00  0.00     0.042 A
ATOM      4  C   UNL     1      31.724  15.591  -2.612  1.00  0.00     0.030 A
ATOM      5  C   UNL     1      30.704  16.238  -3.319  1.00  0.00     0.049 A
ATOM      6  C   UNL     1      30.944  16.727  -4.604  1.00  0.00     0.125 A
ENDROOT
BRANCH   3   7
ATOM      7  N   UNL     1      33.926  14.590  -2.542  1.00  0.00    -0.324 N
ATOM      8  H   UNL     1      34.528  15.000  -1.848  1.00  0.00     0.170 HD
BRANCH   7   9
ATOM      9  C   UNL     1      34.075  13.204  -2.584  1.00  0.00     0.227 A
ATOM     10  C   UNL     1      34.261  10.480  -2.432  1.00  0.00    -0.006 A
ATOM     11  C   UNL     1      35.208  11.342  -1.907  1.00  0.00     0.120 A
ATOM     12  C   UNL     1      33.219  11.101  -3.101  1.00  0.00     0.079 A
ATOM     13  N   UNL     1      35.139  12.688  -1.961  1.00  0.00    -0.221 NA
ATOM     14  N   UNL     1      33.136  12.446  -3.157  1.00  0.00    -0.212 NA
ATOM     15  C   UNL     1      34.415   9.006  -2.254  1.00  0.00     0.048 C
BRANCH  12  16
ATOM     16  C   UNL     1      32.086  10.430  -3.777  1.00  0.00     0.001 A
ATOM     17  C   UNL     1      31.101  11.127  -4.494  1.00  0.00     0.010 A
ATOM     18  C   UNL     1      31.924   9.032  -3.653  1.00  0.00     0.016 A
ATOM     19  C   UNL     1      30.022  10.457  -5.084  1.00  0.00     0.001 A
ATOM     20  C   UNL     1      30.845   8.344  -4.234  1.00  0.00    -0.022 A
ATOM     21  C   UNL     1      29.895   9.074  -4.953  1.00  0.00     0.006 A
BRANCH  20  22
ATOM     22  C   UNL     1      30.695   6.855  -4.041  1.00  0.00     0.196 C
BRANCH  22  23
ATOM     23  O   UNL     1      30.241   6.274  -5.262  1.00  0.00    -0.372 OA
BRANCH  23  24
ATOM     24  C   UNL     1      29.154   5.373  -5.071  1.00  0.00     0.191 C
ATOM     25  G   UNL     1      28.739   4.783  -6.403  1.00  0.00     0.000 C
ENDBRANCH  23  24
ENDBRANCH  22  23
ENDBRANCH  20  22
ENDBRANCH  12  16
ENDBRANCH   7   9
ENDBRANCH   3   7
BRANCH   1  26
ATOM     26  C   UNL     1      32.534  17.178  -6.545  1.00  0.00     0.200 C
BRANCH  26  27
ATOM     27  O   UNL     1      33.839  17.766  -6.516  1.00  0.00    -0.373 OA
BRANCH  27  28
ATOM     28  C   UNL     1      33.829  19.173  -6.742  1.00  0.00     0.188 C
BRANCH  28  29
ATOM     29  C   UNL     1      32.590  19.821  -6.192  1.00  0.00     0.003 C
ATOM     30  C   UNL     1      32.434  21.128  -5.879  1.00  0.00    -0.046 C
ATOM     31  G   UNL     1      33.564  22.135  -5.912  1.00  0.00     0.000 C
BRANCH  30  32
ATOM     32  C   UNL     1      31.067  21.659  -5.493  1.00  0.00     0.033 C
BRANCH  32  33
ATOM     33  C   UNL     1      29.903  20.671  -5.696  1.00  0.00     0.006 C
BRANCH  33  34
ATOM     34  C   UNL     1      29.048  20.881  -6.960  1.00  0.00     0.019 C
ATOM     35  G   UNL     1      28.387  22.270  -7.074  1.00  0.00     0.000 C
ENDBRANCH  33  34
ENDBRANCH  32  33
ENDBRANCH  30  32
ENDBRANCH  28  29
ENDBRANCH  27  28
ENDBRANCH  26  27
ENDBRANCH   1  26
BRANCH   6  36
ATOM     36  O   UNL     1      29.895  17.194  -5.345  1.00  0.00    -0.492 OA
BRANCH  36  37
ATOM     37  C   UNL     1      28.975  16.167  -5.710  1.00  0.00     0.245 C
BRANCH  37  38
ATOM     38  C   UNL     1      27.628  16.451  -5.018  1.00  0.00     0.126 C
BRANCH  38  39
ATOM     39  N   UNL     1      26.511  15.890  -5.809  1.00  0.00    -0.297 NA
ATOM     40  C   UNL     1      25.826  14.803  -5.089  1.00  0.00     0.085 C
ATOM     41  C   UNL     1      26.881  15.271  -7.108  1.00  0.00     0.056 C
ATOM     42  C   UNL     1      26.577  13.528  -5.452  1.00  0.00     0.017 C
ATOM     43  C   UNL     1      27.347  13.863  -6.729  1.00  0.00     0.020 C
ATOM     44  G   UNL     1      27.877  16.030  -8.009  1.00  0.00     0.000 C
ENDBRANCH  38  39
ENDBRANCH  37  38
ENDBRANCH  36  37
ENDBRANCH   6  36
TORSDOF 0
ENDMDL
MODEL 9
REMARK VINA RESULT:      -7.7      2.683      8.690
REMARK SMILES Cc1cnc2nc1-c1cccc(c1)COCC1=CCOCc3cc(ccc3OCCN3CCC[C@@H]3CCC1)N2
REMARK SMILES IDX 22 1 23 2 24 3 25 4 26 5 27 6 39 7 5 9 2 10 3 11 7 12 4 13
REMARK SMILES IDX 6 14 1 15 8 16 9 17 13 18 10 19 12 20 11 21 14 22 15 23
REMARK SMILES IDX 16 24 21 26 20 27 19 28 18 29 17 30 38 32 37 33 36 34 28 36
REMARK SMILES IDX 29 37 30 38 31 39 32 40 35 41 33 42 34 43
REMARK H PARENT 39 8
REMARK Flexibility Score:  100.800
ROOT
ATOM      1  C   UNL     1      27.462  11.988  -6.236  1.00  0.00     0.022 A
ATOM      2  C   UNL     1      28.197  12.602  -5.208  1.00  0.00     0.036 A
ATOM      3  C   UNL     1      28.281  13.994  -5.072  1.00  0.00     0.042 A
ATOM      4  C   UNL     1      27.647  14.784  -6.035  1.00  0.00     0.030 A
ATOM      5  C   UNL     1      26.900  14.199  -7.064  1.00  0.00     0.049 A
ATOM      6  C   UNL     1      26.802  12.810  -7.154  1.00  0.00     0.125 A
ENDROOT
BRANCH   3   7
ATOM      7  N   UNL     1      28.856  14.600  -3.947  1.00  0.00    -0.324 N
ATOM      8  H   UNL     1      28.283  14.757  -3.135  1.00  0.00     0.170 HD
BRANCH   7   9
ATOM      9  C   UNL     1      30.194  14.895  -3.685  1.00  0.00     0.227 A
ATOM     10  C   UNL     1      32.878  15.278  -3.325  1.00  0.00    -0.006 A
ATOM     11  C   UNL     1      32.125  14.385  -2.582  1.00  0.00     0.120 A
ATOM     12  C   UNL     1      32.155  16.019  -4.246  1.00  0.00     0.079 A
ATOM     13  N   UNL     1      30.804  14.171  -2.742  1.00  0.00    -0.221 NA
ATOM     14  N   UNL     1      30.834  15.810  -4.418  1.00  0.00    -0.212 NA
ATOM     15  C   UNL     1      34.350  15.382  -3.099  1.00  0.00     0.048 C
BRANCH  12  16
ATOM     16  C   UNL     1      32.693  17.059  -5.152  1.00  0.00     0.001 A
ATOM     17  C   UNL     1      33.459  16.762  -6.289  1.00  0.00     0.010 A
ATOM     18  C   UNL     1      32.503  18.424  -4.843  1.00  0.00     0.016 A
ATOM     19  C   UNL     1      33.984  17.777  -7.096  1.00  0.00     0.001 A
ATOM     20  C   UNL     1      33.026  19.457  -5.639  1.00  0.00    -0.022 A
ATOM     21  C   UNL     1      33.769  19.117  -6.772  1.00  0.00     0.006 A
BRANCH  20  22
ATOM     22  C   UNL     1      32.827  20.900  -5.247  1.00  0.00     0.196 C
BRANCH  22  23
ATOM     23  O   UNL     1      31.864  21.488  -6.119  1.00  0.00    -0.372 OA
BRANCH  23  24
ATOM     24  C   UNL     1      30.537  21.414  -5.605  1.00  0.00     0.191 C
ATOM     25  G   UNL     1      29.715  20.461  -6.447  1.00  0.00     0.000 C
ENDBRANCH  23  24
ENDBRANCH  22  23
ENDBRANCH  20  22
ENDBRANCH  12  16
ENDBRANCH   7   9
ENDBRANCH   3   7
BRANCH   1  26
ATOM     26  C   UNL     1      27.446  10.483  -6.338  1.00  0.00     0.200 C
BRANCH  26  27
ATOM     27  O   UNL     1      28.344   9.924  -5.373  1.00  0.00    -0.373 OA
BRANCH  27  28
ATOM     28  C   UNL     1      29.465   9.269  -5.960  1.00  0.00     0.188 C
BRANCH  28  29
ATOM     29  C   UNL     1      30.333   8.607  -4.927  1.00  0.00     0.003 C
ATOM     30  C   UNL     1      31.170   9.224  -4.061  1.00  0.00    -0.046 C
ATOM     31  G   UNL     1      31.465  10.708  -4.100  1.00  0.00     0.000 C
BRANCH  30  32
ATOM     32  C   UNL     1      31.851   8.427  -2.964  1.00  0.00     0.033 C
BRANCH  32  33
ATOM     33  C   UNL     1      32.725   9.255  -2.005  1.00  0.00     0.006 C
BRANCH  33  34
ATOM     34  C   UNL     1      34.239   8.969  -2.048  1.00  0.00     0.019 C
ATOM     35  G   UNL     1      35.099   9.889  -1.158  1.00  0.00     0.000 C
ENDBRANCH  33  34
ENDBRANCH  32  33
ENDBRANCH  30  32
ENDBRANCH  28  29
ENDBRANCH  27  28
ENDBRANCH  26  27
ENDBRANCH   1  26
BRANCH   6  36
ATOM     36  O   UNL     1      25.931  12.262  -8.053  1.00  0.00    -0.492 OA
BRANCH  36  37
ATOM     37  C   UNL     1      26.425  12.290  -9.391  1.00  0.00     0.245 C
BRANCH  37  38
ATOM     38  C   UNL     1      25.557  13.264 -10.210  1.00  0.00     0.126 C
BRANCH  38  39
ATOM     39  N   UNL     1      26.351  13.876 -11.297  1.00  0.00    -0.297 NA
ATOM     40  C   UNL     1      27.620  14.432 -10.798  1.00  0.00     0.085 C
ATOM     41  C   UNL     1      25.718  15.023 -11.998  1.00  0.00     0.056 C
ATOM     42  C   UNL     1      27.308  15.861 -10.372  1.00  0.00     0.017 C
ATOM     43  C   UNL     1      26.005  16.220 -11.087  1.00  0.00     0.020 C
ATOM     44  G   UNL     1      24.234  14.892 -12.397  1.00  0.00     0.000 C
ENDBRANCH  38  39
ENDBRANCH  37  38
ENDBRANCH  36  37
ENDBRANCH   6  36
TORSDOF 0
ENDMDL
