MODEL 1
REMARK VINA RESULT:     -11.0      0.000      0.000
REMARK SMILES Fc1cc2cc(F)c1CN1CCO[C@H](CNCC3(CCNCC3)n3cc(cn3)-c3cnc4cccc-2c4n3)C1
REMARK SMILES IDX 1 1 2 2 3 3 4 4 5 5 6 6 7 7 8 8 9 9 10 10 11 11 39 12 12 13
REMARK SMILES IDX 14 14 13 15 15 16 16 17 17 19 36 21 35 22 37 23 34 24 38 25
REMARK SMILES IDX 32 26 33 27 29 28 31 29 30 30 26 31 25 32 27 33 24 34 28 35
REMARK SMILES IDX 18 36 19 37 23 38 20 39 22 40 21 41
REMARK H PARENT 16 18 21 42
REMARK Flexibility Score:   78.900
ROOT
ATOM      1  F   UNL     1      30.360  16.196  -2.309  1.00  0.00    -0.207 F
ATOM      2  C   UNL     1      31.128  15.465  -3.129  1.00  0.00     0.131 A
ATOM      3  C   UNL     1      31.994  14.528  -2.573  1.00  0.00     0.048 A
ATOM      4  C   UNL     1      32.784  13.716  -3.398  1.00  0.00    -0.010 A
ATOM      5  C   UNL     1      32.715  13.904  -4.785  1.00  0.00     0.048 A
ATOM      6  C   UNL     1      31.840  14.845  -5.323  1.00  0.00     0.131 A
ATOM      7  F   UNL     1      31.786  14.979  -6.656  1.00  0.00    -0.207 F
ATOM      8  C   UNL     1      31.019  15.627  -4.510  1.00  0.00     0.038 A
ENDROOT
BRANCH   8   9
ATOM      9  C   UNL     1      29.992  16.553  -5.101  1.00  0.00     0.126 C
BRANCH   9  10
ATOM     10  N   UNL     1      30.129  17.937  -4.615  1.00  0.00    -0.294 NA
ATOM     11  C   UNL     1      28.981  18.777  -5.008  1.00  0.00     0.113 C
ATOM     12  C   UNL     1      31.407  18.558  -5.033  1.00  0.00     0.118 C
ATOM     13  C   UNL     1      29.295  19.744  -6.158  1.00  0.00     0.176 C
ATOM     14  C   UNL     1      31.346  20.097  -4.946  1.00  0.00     0.146 C
ATOM     15  O   UNL     1      30.369  20.645  -5.858  1.00  0.00    -0.374 OA
BRANCH  14  16
ATOM     16  C   UNL     1      32.701  20.766  -5.273  1.00  0.00     0.114 C
BRANCH  16  17
ATOM     17  N   UNL     1      33.908  19.930  -5.334  1.00  0.00    -0.312 NA
ATOM     18  H   UNL     1      34.703  20.407  -4.906  1.00  0.00     0.122 HD
BRANCH  17  19
ATOM     19  C   UNL     1      34.248  19.492  -6.694  1.00  0.00     0.111 C
ATOM     20  G   UNL     1      34.401  17.938  -6.861  1.00  0.00     0.000 C
ENDBRANCH  17  19
ENDBRANCH  16  17
ENDBRANCH  14  16
ENDBRANCH   9  10
ENDBRANCH   8   9
BRANCH   4  21
ATOM     21  C   UNL     1      33.610  12.648  -2.818  1.00  0.00     0.010 A
ATOM     22  C   UNL     1      34.789  12.978  -2.129  1.00  0.00     0.011 A
ATOM     23  C   UNL     1      33.213  11.303  -2.941  1.00  0.00     0.097 A
ATOM     24  C   UNL     1      35.566  11.981  -1.553  1.00  0.00     0.003 A
ATOM     25  N   UNL     1      32.088  10.971  -3.621  1.00  0.00    -0.244 NA
ATOM     26  C   UNL     1      34.008  10.295  -2.340  1.00  0.00     0.089 A
ATOM     27  C   UNL     1      35.165  10.652  -1.661  1.00  0.00     0.030 A
ATOM     28  C   UNL     1      31.752   9.663  -3.690  1.00  0.00     0.092 A
ATOM     29  N   UNL     1      33.671   8.993  -2.407  1.00  0.00    -0.252 NA
ATOM     30  C   UNL     1      32.536   8.696  -3.087  1.00  0.00     0.140 A
BRANCH  28  31
ATOM     31  C   UNL     1      30.548   9.336  -4.427  1.00  0.00     0.040 A
ATOM     32  C   UNL     1      30.227   8.079  -4.900  1.00  0.00     0.119 A
ATOM     33  C   UNL     1      29.448  10.131  -4.804  1.00  0.00     0.145 A
ATOM     34  N   UNL     1      29.006   8.182  -5.518  1.00  0.00    -0.265 N
ATOM     35  N   UNL     1      28.509   9.439  -5.448  1.00  0.00    -0.180 NA
BRANCH  34  36
ATOM     36  C   UNL     1      28.173   7.086  -6.067  1.00  0.00     0.078 C
ATOM     37  C   UNL     1      28.828   5.690  -5.826  1.00  0.00     0.047 C
ATOM     38  C   UNL     1      28.020   7.344  -7.592  1.00  0.00     0.047 C
ATOM     39  C   UNL     1      29.716   5.273  -6.995  1.00  0.00     0.083 C
ATOM     40  C   UNL     1      27.829   6.045  -8.368  1.00  0.00     0.083 C
ATOM     41  N   UNL     1      28.971   5.145  -8.250  1.00  0.00    -0.317 NA
ATOM     42  H   UNL     1      28.666   4.181  -8.380  1.00  0.00     0.122 HD
ATOM     43  G   UNL     1      26.745   7.061  -5.413  1.00  0.00     0.000 C
ENDBRANCH  34  36
ENDBRANCH  28  31
ENDBRANCH   4  21
TORSDOF 0
ENDMDL
MODEL 2
REMARK VINA RESULT:     -11.0      2.040      3.575
REMARK SMILES Fc1cc2cc(F)c1CN1CCO[C@H](CNCC3(CCNCC3)n3cc(cn3)-c3cnc4cccc-2c4n3)C1
REMARK SMILES IDX 1 1 2 2 3 3 4 4 5 5 6 6 7 7 8 8 9 9 10 10 11 11 39 12 12 13
REMARK SMILES IDX 14 14 13 15 15 16 16 17 17 19 36 21 35 22 37 23 34 24 38 25
REMARK SMILES IDX 32 26 33 27 29 28 31 29 30 30 26 31 25 32 27 33 24 34 28 35
REMARK SMILES IDX 18 36 19 37 23 38 20 39 22 40 21 41
REMARK H PARENT 16 18 21 42
REMARK Flexibility Score:   78.900
ROOT
ATOM      1  F   UNL     1      30.503  16.166  -1.955  1.00  0.00    -0.207 F
ATOM      2  C   UNL     1      31.315  15.534  -2.815  1.00  0.00     0.131 A
ATOM      3  C   UNL     1      32.130  14.513  -2.335  1.00  0.00     0.048 A
ATOM      4  C   UNL     1      32.963  13.801  -3.209  1.00  0.00    -0.010 A
ATOM      5  C   UNL     1      32.988  14.173  -4.560  1.00  0.00     0.048 A
ATOM      6  C   UNL     1      32.162  15.196  -5.021  1.00  0.00     0.131 A
ATOM      7  F   UNL     1      32.199  15.507  -6.326  1.00  0.00    -0.207 F
ATOM      8  C   UNL     1      31.299  15.880  -4.165  1.00  0.00     0.038 A
ENDROOT
BRANCH   8   9
ATOM      9  C   UNL     1      30.326  16.899  -4.692  1.00  0.00     0.126 C
BRANCH   9  10
ATOM     10  N   UNL     1      29.361  16.323  -5.644  1.00  0.00    -0.294 NA
ATOM     11  C   UNL     1      28.529  17.361  -6.285  1.00  0.00     0.113 C
ATOM     12  C   UNL     1      28.516  15.274  -5.027  1.00  0.00     0.118 C
ATOM     13  C   UNL     1      27.098  17.423  -5.735  1.00  0.00     0.176 C
ATOM     14  C   UNL     1      27.235  15.021  -5.848  1.00  0.00     0.146 C
ATOM     15  O   UNL     1      26.384  16.188  -5.882  1.00  0.00    -0.374 OA
BRANCH  14  16
ATOM     16  C   UNL     1      26.389  13.855  -5.286  1.00  0.00     0.114 C
BRANCH  16  17
ATOM     17  N   UNL     1      26.529  12.523  -5.888  1.00  0.00    -0.312 NA
ATOM     18  H   UNL     1      27.029  11.891  -5.261  1.00  0.00     0.122 HD
BRANCH  17  19
ATOM     19  C   UNL     1      27.170  12.543  -7.210  1.00  0.00     0.111 C
ATOM     20  G   UNL     1      26.209  12.212  -8.407  1.00  0.00     0.000 C
ENDBRANCH  17  19
ENDBRANCH  16  17
ENDBRANCH  14  16
ENDBRANCH   9  10
ENDBRANCH   8   9
BRANCH   4  21
ATOM     21  C   UNL     1      33.735  12.649  -2.726  1.00  0.00     0.010 A
ATOM     22  C   UNL     1      34.974  12.856  -2.100  1.00  0.00     0.011 A
ATOM     23  C   UNL     1      33.226  11.344  -2.877  1.00  0.00     0.097 A
ATOM     24  C   UNL     1      35.704  11.778  -1.615  1.00  0.00     0.003 A
ATOM     25  N   UNL     1      32.039  11.130  -3.498  1.00  0.00    -0.244 NA
ATOM     26  C   UNL     1      33.973  10.252  -2.369  1.00  0.00     0.089 A
ATOM     27  C   UNL     1      35.194  10.489  -1.751  1.00  0.00     0.030 A
ATOM     28  C   UNL     1      31.597   9.856  -3.598  1.00  0.00     0.092 A
ATOM     29  N   UNL     1      33.530   8.985  -2.467  1.00  0.00    -0.252 NA
ATOM     30  C   UNL     1      32.337   8.806  -3.085  1.00  0.00     0.140 A
BRANCH  28  31
ATOM     31  C   UNL     1      30.329   9.656  -4.269  1.00  0.00     0.040 A
ATOM     32  C   UNL     1      30.016   8.568  -5.061  1.00  0.00     0.119 A
ATOM     33  C   UNL     1      29.152  10.429  -4.276  1.00  0.00     0.145 A
ATOM     34  N   UNL     1      28.724   8.741  -5.490  1.00  0.00    -0.265 N
ATOM     35  N   UNL     1      28.176   9.877  -4.997  1.00  0.00    -0.180 NA
BRANCH  34  36
ATOM     36  C   UNL     1      27.887   7.785  -6.251  1.00  0.00     0.078 C
ATOM     37  C   UNL     1      28.207   6.307  -5.867  1.00  0.00     0.047 C
ATOM     38  C   UNL     1      28.182   8.016  -7.761  1.00  0.00     0.047 C
ATOM     39  C   UNL     1      29.282   5.708  -6.768  1.00  0.00     0.083 C
ATOM     40  C   UNL     1      27.978   6.743  -8.576  1.00  0.00     0.083 C
ATOM     41  N   UNL     1      28.879   5.667  -8.175  1.00  0.00    -0.317 NA
ATOM     42  H   UNL     1      28.456   4.765  -8.394  1.00  0.00     0.122 HD
ATOM     43  G   UNL     1      26.356   8.024  -5.995  1.00  0.00     0.000 C
ENDBRANCH  34  36
ENDBRANCH  28  31
ENDBRANCH   4  21
TORSDOF 0
ENDMDL
MODEL 3
REMARK VINA RESULT:     -10.9      1.491      2.001
REMARK SMILES Fc1cc2cc(F)c1CN1CCO[C@H](CNCC3(CCNCC3)n3cc(cn3)-c3cnc4cccc-2c4n3)C1
REMARK SMILES IDX 1 1 2 2 3 3 4 4 5 5 6 6 7 7 8 8 9 9 10 10 11 11 39 12 12 13
REMARK SMILES IDX 14 14 13 15 15 16 16 17 17 19 36 21 35 22 37 23 34 24 38 25
REMARK SMILES IDX 32 26 33 27 29 28 31 29 30 30 26 31 25 32 27 33 24 34 28 35
REMARK SMILES IDX 18 36 19 37 23 38 20 39 22 40 21 41
REMARK H PARENT 16 18 21 42
REMARK Flexibility Score:   78.900
ROOT
ATOM      1  F   UNL     1      31.051  16.080  -1.825  1.00  0.00    -0.207 F
ATOM      2  C   UNL     1      31.690  15.240  -2.652  1.00  0.00     0.131 A
ATOM      3  C   UNL     1      32.578  14.316  -2.108  1.00  0.00     0.048 A
ATOM      4  C   UNL     1      33.235  13.394  -2.934  1.00  0.00    -0.010 A
ATOM      5  C   UNL     1      33.011  13.456  -4.316  1.00  0.00     0.048 A
ATOM      6  C   UNL     1      32.116  14.386  -4.841  1.00  0.00     0.131 A
ATOM      7  F   UNL     1      31.912  14.399  -6.166  1.00  0.00    -0.207 F
ATOM      8  C   UNL     1      31.426  15.279  -4.020  1.00  0.00     0.038 A
ENDROOT
BRANCH   8   9
ATOM      9  C   UNL     1      30.374  16.196  -4.579  1.00  0.00     0.126 C
BRANCH   9  10
ATOM     10  N   UNL     1      30.761  17.615  -4.508  1.00  0.00    -0.294 NA
ATOM     11  C   UNL     1      29.761  18.495  -5.144  1.00  0.00     0.113 C
ATOM     12  C   UNL     1      32.112  17.860  -5.066  1.00  0.00     0.118 C
ATOM     13  C   UNL     1      30.197  19.024  -6.518  1.00  0.00     0.176 C
ATOM     14  C   UNL     1      32.318  19.346  -5.424  1.00  0.00     0.146 C
ATOM     15  O   UNL     1      31.418  19.772  -6.471  1.00  0.00    -0.374 OA
BRANCH  14  16
ATOM     16  C   UNL     1      33.756  19.648  -5.907  1.00  0.00     0.114 C
BRANCH  16  17
ATOM     17  N   UNL     1      33.969  20.760  -6.843  1.00  0.00    -0.312 NA
ATOM     18  H   UNL     1      34.482  20.448  -7.668  1.00  0.00     0.122 HD
BRANCH  17  19
ATOM     19  C   UNL     1      34.638  21.917  -6.234  1.00  0.00     0.111 C
ATOM     20  G   UNL     1      34.148  22.266  -4.783  1.00  0.00     0.000 C
ENDBRANCH  17  19
ENDBRANCH  16  17
ENDBRANCH  14  16
ENDBRANCH   9  10
ENDBRANCH   8   9
BRANCH   4  21
ATOM     21  C   UNL     1      34.081  12.344  -2.350  1.00  0.00     0.010 A
ATOM     22  C   UNL     1      35.248  12.700  -1.656  1.00  0.00     0.011 A
ATOM     23  C   UNL     1      33.714  10.990  -2.475  1.00  0.00     0.097 A
ATOM     24  C   UNL     1      36.045  11.720  -1.076  1.00  0.00     0.003 A
ATOM     25  N   UNL     1      32.600  10.634  -3.161  1.00  0.00    -0.244 NA
ATOM     26  C   UNL     1      34.529  10.000  -1.870  1.00  0.00     0.089 A
ATOM     27  C   UNL     1      35.674  10.382  -1.186  1.00  0.00     0.030 A
ATOM     28  C   UNL     1      32.294   9.319  -3.232  1.00  0.00     0.092 A
ATOM     29  N   UNL     1      34.220   8.692  -1.939  1.00  0.00    -0.252 NA
ATOM     30  C   UNL     1      33.096   8.370  -2.625  1.00  0.00     0.140 A
BRANCH  28  31
ATOM     31  C   UNL     1      31.101   8.966  -3.975  1.00  0.00     0.040 A
ATOM     32  C   UNL     1      30.062   9.830  -4.260  1.00  0.00     0.119 A
ATOM     33  C   UNL     1      30.715   7.759  -4.589  1.00  0.00     0.145 A
ATOM     34  N   UNL     1      29.142   9.125  -4.993  1.00  0.00    -0.265 N
ATOM     35  N   UNL     1      29.543   7.851  -5.217  1.00  0.00    -0.180 NA
BRANCH  34  36
ATOM     36  C   UNL     1      27.919   9.642  -5.652  1.00  0.00     0.078 C
ATOM     37  C   UNL     1      26.631   8.972  -5.079  1.00  0.00     0.047 C
ATOM     38  C   UNL     1      28.048   9.331  -7.170  1.00  0.00     0.047 C
ATOM     39  C   UNL     1      26.239   7.729  -5.872  1.00  0.00     0.083 C
ATOM     40  C   UNL     1      26.683   9.152  -7.826  1.00  0.00     0.083 C
ATOM     41  N   UNL     1      25.935   8.027  -7.273  1.00  0.00    -0.317 NA
ATOM     42  H   UNL     1      24.935   8.189  -7.389  1.00  0.00     0.122 HD
ATOM     43  G   UNL     1      27.772  11.194  -5.465  1.00  0.00     0.000 C
ENDBRANCH  34  36
ENDBRANCH  28  31
ENDBRANCH   4  21
TORSDOF 0
ENDMDL
MODEL 4
REMARK VINA RESULT:     -10.9      0.785      1.008
REMARK SMILES Fc1cc2cc(F)c1CN1CCO[C@H](CNCC3(CCNCC3)n3cc(cn3)-c3cnc4cccc-2c4n3)C1
REMARK SMILES IDX 1 1 2 2 3 3 4 4 5 5 6 6 7 7 8 8 9 9 10 10 11 11 39 12 12 13
REMARK SMILES IDX 14 14 13 15 15 16 16 17 17 19 36 21 35 22 37 23 34 24 38 25
REMARK SMILES IDX 32 26 33 27 29 28 31 29 30 30 26 31 25 32 27 33 24 34 28 35
REMARK SMILES IDX 18 36 19 37 23 38 20 39 22 40 21 41
REMARK H PARENT 16 18 21 42
REMARK Flexibility Score:   78.900
ROOT
ATOM      1  F   UNL     1      30.199  16.177  -2.029  1.00  0.00    -0.207 F
ATOM      2  C   UNL     1      30.953  15.520  -2.922  1.00  0.00     0.131 A
ATOM      3  C   UNL     1      31.873  14.584  -2.458  1.00  0.00     0.048 A
ATOM      4  C   UNL     1      32.651  13.847  -3.361  1.00  0.00    -0.010 A
ATOM      5  C   UNL     1      32.513  14.109  -4.731  1.00  0.00     0.048 A
ATOM      6  C   UNL     1      31.584  15.047  -5.176  1.00  0.00     0.131 A
ATOM      7  F   UNL     1      31.465  15.252  -6.496  1.00  0.00    -0.207 F
ATOM      8  C   UNL     1      30.775  15.753  -4.285  1.00  0.00     0.038 A
ENDROOT
BRANCH   8   9
ATOM      9  C   UNL     1      29.694  16.674  -4.778  1.00  0.00     0.126 C
BRANCH   9  10
ATOM     10  N   UNL     1      29.985  18.092  -4.501  1.00  0.00    -0.294 NA
ATOM     11  C   UNL     1      29.026  18.994  -5.168  1.00  0.00     0.113 C
ATOM     12  C   UNL     1      31.380  18.458  -4.841  1.00  0.00     0.118 C
ATOM     13  C   UNL     1      29.604  19.696  -6.404  1.00  0.00     0.176 C
ATOM     14  C   UNL     1      31.543  19.983  -5.004  1.00  0.00     0.146 C
ATOM     15  O   UNL     1      30.763  20.487  -6.112  1.00  0.00    -0.374 OA
BRANCH  14  16
ATOM     16  C   UNL     1      33.011  20.401  -5.252  1.00  0.00     0.114 C
BRANCH  16  17
ATOM     17  N   UNL     1      34.030  19.354  -5.401  1.00  0.00    -0.312 NA
ATOM     18  H   UNL     1      34.899  19.624  -4.938  1.00  0.00     0.122 HD
BRANCH  17  19
ATOM     19  C   UNL     1      34.291  18.986  -6.799  1.00  0.00     0.111 C
ATOM     20  G   UNL     1      33.800  17.548  -7.198  1.00  0.00     0.000 C
ENDBRANCH  17  19
ENDBRANCH  16  17
ENDBRANCH  14  16
ENDBRANCH   9  10
ENDBRANCH   8   9
BRANCH   4  21
ATOM     21  C   UNL     1      33.537  12.778  -2.880  1.00  0.00     0.010 A
ATOM     22  C   UNL     1      34.759  13.109  -2.273  1.00  0.00     0.011 A
ATOM     23  C   UNL     1      33.153  11.429  -3.014  1.00  0.00     0.097 A
ATOM     24  C   UNL     1      35.595  12.111  -1.790  1.00  0.00     0.003 A
ATOM     25  N   UNL     1      31.985  11.097  -3.616  1.00  0.00    -0.244 NA
ATOM     26  C   UNL     1      34.009  10.420  -2.507  1.00  0.00     0.089 A
ATOM     27  C   UNL     1      35.209  10.778  -1.908  1.00  0.00     0.030 A
ATOM     28  C   UNL     1      31.666   9.785  -3.701  1.00  0.00     0.092 A
ATOM     29  N   UNL     1      33.689   9.114  -2.589  1.00  0.00    -0.252 NA
ATOM     30  C   UNL     1      32.511   8.816  -3.189  1.00  0.00     0.140 A
BRANCH  28  31
ATOM     31  C   UNL     1      30.415   9.458  -4.353  1.00  0.00     0.040 A
ATOM     32  C   UNL     1      30.189   8.323  -5.107  1.00  0.00     0.119 A
ATOM     33  C   UNL     1      29.177  10.129  -4.372  1.00  0.00     0.145 A
ATOM     34  N   UNL     1      28.885   8.373  -5.528  1.00  0.00    -0.265 N
ATOM     35  N   UNL     1      28.246   9.473  -5.065  1.00  0.00    -0.180 NA
BRANCH  34  36
ATOM     36  C   UNL     1      28.125   7.326  -6.251  1.00  0.00     0.078 C
ATOM     37  C   UNL     1      28.823   6.930  -7.589  1.00  0.00     0.047 C
ATOM     38  C   UNL     1      26.710   7.903  -6.542  1.00  0.00     0.047 C
ATOM     39  C   UNL     1      28.317   7.764  -8.761  1.00  0.00     0.083 C
ATOM     40  C   UNL     1      26.103   7.296  -7.802  1.00  0.00     0.083 C
ATOM     41  N   UNL     1      26.883   7.586  -9.001  1.00  0.00    -0.317 NA
ATOM     42  H   UNL     1      26.731   6.857  -9.696  1.00  0.00     0.122 HD
ATOM     43  G   UNL     1      27.971   6.022  -5.389  1.00  0.00     0.000 C
ENDBRANCH  34  36
ENDBRANCH  28  31
ENDBRANCH   4  21
TORSDOF 0
ENDMDL
MODEL 5
REMARK VINA RESULT:     -10.9      2.020      3.865
REMARK SMILES Fc1cc2cc(F)c1CN1CCO[C@H](CNCC3(CCNCC3)n3cc(cn3)-c3cnc4cccc-2c4n3)C1
REMARK SMILES IDX 1 1 2 2 3 3 4 4 5 5 6 6 7 7 8 8 9 9 10 10 11 11 39 12 12 13
REMARK SMILES IDX 14 14 13 15 15 16 16 17 17 19 36 21 35 22 37 23 34 24 38 25
REMARK SMILES IDX 32 26 33 27 29 28 31 29 30 30 26 31 25 32 27 33 24 34 28 35
REMARK SMILES IDX 18 36 19 37 23 38 20 39 22 40 21 41
REMARK H PARENT 16 18 21 42
REMARK Flexibility Score:   78.900
ROOT
ATOM      1  F   UNL     1      32.286  14.920  -6.452  1.00  0.00    -0.207 F
ATOM      2  C   UNL     1      32.241  14.736  -5.124  1.00  0.00     0.131 A
ATOM      3  C   UNL     1      32.955  13.676  -4.573  1.00  0.00     0.048 A
ATOM      4  C   UNL     1      32.967  13.474  -3.186  1.00  0.00    -0.010 A
ATOM      5  C   UNL     1      32.209  14.333  -2.379  1.00  0.00     0.048 A
ATOM      6  C   UNL     1      31.503  15.391  -2.949  1.00  0.00     0.131 A
ATOM      7  F   UNL     1      30.809  16.204  -2.140  1.00  0.00    -0.207 F
ATOM      8  C   UNL     1      31.522  15.624  -4.325  1.00  0.00     0.038 A
ENDROOT
BRANCH   8   9
ATOM      9  C   UNL     1      30.857  16.835  -4.918  1.00  0.00     0.126 C
BRANCH   9  10
ATOM     10  N   UNL     1      29.647  16.500  -5.688  1.00  0.00    -0.294 NA
ATOM     11  C   UNL     1      29.006  17.699  -6.261  1.00  0.00     0.113 C
ATOM     12  C   UNL     1      28.677  15.707  -4.897  1.00  0.00     0.118 C
ATOM     13  C   UNL     1      27.734  18.127  -5.516  1.00  0.00     0.176 C
ATOM     14  C   UNL     1      27.263  15.765  -5.510  1.00  0.00     0.146 C
ATOM     15  O   UNL     1      26.727  17.107  -5.488  1.00  0.00    -0.374 OA
BRANCH  14  16
ATOM     16  C   UNL     1      26.254  14.860  -4.766  1.00  0.00     0.114 C
BRANCH  16  17
ATOM     17  N   UNL     1      25.768  13.644  -5.433  1.00  0.00    -0.312 NA
ATOM     18  H   UNL     1      25.070  13.168  -4.859  1.00  0.00     0.122 HD
BRANCH  17  19
ATOM     19  C   UNL     1      26.841  12.713  -5.806  1.00  0.00     0.111 C
ATOM     20  G   UNL     1      26.881  12.341  -7.332  1.00  0.00     0.000 C
ENDBRANCH  17  19
ENDBRANCH  16  17
ENDBRANCH  14  16
ENDBRANCH   9  10
ENDBRANCH   8   9
BRANCH   4  21
ATOM     21  C   UNL     1      33.813  12.429  -2.595  1.00  0.00     0.010 A
ATOM     22  C   UNL     1      34.976  12.789  -1.896  1.00  0.00     0.011 A
ATOM     23  C   UNL     1      33.449  11.073  -2.716  1.00  0.00     0.097 A
ATOM     24  C   UNL     1      35.772  11.813  -1.309  1.00  0.00     0.003 A
ATOM     25  N   UNL     1      32.338  10.712  -3.405  1.00  0.00    -0.244 NA
ATOM     26  C   UNL     1      34.262  10.087  -2.103  1.00  0.00     0.089 A
ATOM     27  C   UNL     1      35.404  10.474  -1.415  1.00  0.00     0.030 A
ATOM     28  C   UNL     1      32.035   9.396  -3.472  1.00  0.00     0.092 A
ATOM     29  N   UNL     1      33.957   8.778  -2.168  1.00  0.00    -0.252 NA
ATOM     30  C   UNL     1      32.836   8.451  -2.857  1.00  0.00     0.140 A
BRANCH  28  31
ATOM     31  C   UNL     1      30.846   9.038  -4.219  1.00  0.00     0.040 A
ATOM     32  C   UNL     1      30.577   7.780  -4.721  1.00  0.00     0.119 A
ATOM     33  C   UNL     1      29.715   9.796  -4.581  1.00  0.00     0.145 A
ATOM     34  N   UNL     1      29.354   7.847  -5.339  1.00  0.00    -0.265 N
ATOM     35  N   UNL     1      28.806   9.081  -5.243  1.00  0.00    -0.180 NA
BRANCH  34  36
ATOM     36  C   UNL     1      28.567   6.731  -5.914  1.00  0.00     0.078 C
ATOM     37  C   UNL     1      27.042   7.063  -5.954  1.00  0.00     0.047 C
ATOM     38  C   UNL     1      28.814   5.484  -5.018  1.00  0.00     0.047 C
ATOM     39  C   UNL     1      26.328   6.595  -4.691  1.00  0.00     0.083 C
ATOM     40  C   UNL     1      27.621   4.534  -5.034  1.00  0.00     0.083 C
ATOM     41  N   UNL     1      26.407   5.145  -4.504  1.00  0.00    -0.317 NA
ATOM     42  H   UNL     1      25.588   4.693  -4.910  1.00  0.00     0.122 HD
ATOM     43  G   UNL     1      29.020   6.397  -7.380  1.00  0.00     0.000 C
ENDBRANCH  34  36
ENDBRANCH  28  31
ENDBRANCH   4  21
TORSDOF 0
ENDMDL
MODEL 6
REMARK VINA RESULT:     -10.8      2.186      3.896
REMARK SMILES Fc1cc2cc(F)c1CN1CCO[C@H](CNCC3(CCNCC3)n3cc(cn3)-c3cnc4cccc-2c4n3)C1
REMARK SMILES IDX 1 1 2 2 3 3 4 4 5 5 6 6 7 7 8 8 9 9 10 10 11 11 39 12 12 13
REMARK SMILES IDX 14 14 13 15 15 16 16 17 17 19 36 21 35 22 37 23 34 24 38 25
REMARK SMILES IDX 32 26 33 27 29 28 31 29 30 30 26 31 25 32 27 33 24 34 28 35
REMARK SMILES IDX 18 36 19 37 23 38 20 39 22 40 21 41
REMARK H PARENT 16 18 21 42
REMARK Flexibility Score:   78.900
ROOT
ATOM      1  F   UNL     1      30.540  15.991  -1.693  1.00  0.00    -0.207 F
ATOM      2  C   UNL     1      31.377  15.420  -2.571  1.00  0.00     0.131 A
ATOM      3  C   UNL     1      32.178  14.366  -2.140  1.00  0.00     0.048 A
ATOM      4  C   UNL     1      33.036  13.716  -3.037  1.00  0.00    -0.010 A
ATOM      5  C   UNL     1      33.100  14.180  -4.357  1.00  0.00     0.048 A
ATOM      6  C   UNL     1      32.288  15.234  -4.770  1.00  0.00     0.131 A
ATOM      7  F   UNL     1      32.363  15.634  -6.048  1.00  0.00    -0.207 F
ATOM      8  C   UNL     1      31.400  15.859  -3.894  1.00  0.00     0.038 A
ENDROOT
BRANCH   8   9
ATOM      9  C   UNL     1      30.442  16.913  -4.377  1.00  0.00     0.126 C
BRANCH   9  10
ATOM     10  N   UNL     1      29.512  16.409  -5.401  1.00  0.00    -0.294 NA
ATOM     11  C   UNL     1      28.700  17.491  -5.992  1.00  0.00     0.113 C
ATOM     12  C   UNL     1      28.648  15.318  -4.891  1.00  0.00     0.118 C
ATOM     13  C   UNL     1      27.251  17.513  -5.488  1.00  0.00     0.176 C
ATOM     14  C   UNL     1      27.396  15.126  -5.771  1.00  0.00     0.146 C
ATOM     15  O   UNL     1      26.545  16.294  -5.749  1.00  0.00    -0.374 OA
BRANCH  14  16
ATOM     16  C   UNL     1      26.532  13.924  -5.324  1.00  0.00     0.114 C
BRANCH  16  17
ATOM     17  N   UNL     1      26.579  12.686  -6.113  1.00  0.00    -0.312 NA
ATOM     18  H   UNL     1      27.534  12.333  -6.180  1.00  0.00     0.122 HD
BRANCH  17  19
ATOM     19  C   UNL     1      25.991  12.824  -7.452  1.00  0.00     0.111 C
ATOM     20  G   UNL     1      24.651  13.641  -7.497  1.00  0.00     0.000 C
ENDBRANCH  17  19
ENDBRANCH  16  17
ENDBRANCH  14  16
ENDBRANCH   9  10
ENDBRANCH   8   9
BRANCH   4  21
ATOM     21  C   UNL     1      33.794  12.531  -2.613  1.00  0.00     0.010 A
ATOM     22  C   UNL     1      35.039  12.691  -1.984  1.00  0.00     0.011 A
ATOM     23  C   UNL     1      33.266  11.242  -2.823  1.00  0.00     0.097 A
ATOM     24  C   UNL     1      35.756  11.581  -1.555  1.00  0.00     0.003 A
ATOM     25  N   UNL     1      32.074  11.074  -3.447  1.00  0.00    -0.244 NA
ATOM     26  C   UNL     1      34.001  10.117  -2.371  1.00  0.00     0.089 A
ATOM     27  C   UNL     1      35.227  10.307  -1.748  1.00  0.00     0.030 A
ATOM     28  C   UNL     1      31.614   9.812  -3.605  1.00  0.00     0.092 A
ATOM     29  N   UNL     1      33.540   8.862  -2.526  1.00  0.00    -0.252 NA
ATOM     30  C   UNL     1      32.342   8.729  -3.146  1.00  0.00     0.140 A
BRANCH  28  31
ATOM     31  C   UNL     1      30.340   9.662  -4.279  1.00  0.00     0.040 A
ATOM     32  C   UNL     1      29.965   8.561  -5.023  1.00  0.00     0.119 A
ATOM     33  C   UNL     1      29.214  10.505  -4.331  1.00  0.00     0.145 A
ATOM     34  N   UNL     1      28.689   8.794  -5.472  1.00  0.00    -0.265 N
ATOM     35  N   UNL     1      28.211   9.983  -5.036  1.00  0.00    -0.180 NA
BRANCH  34  36
ATOM     36  C   UNL     1      27.798   7.859  -6.198  1.00  0.00     0.078 C
ATOM     37  C   UNL     1      27.692   8.224  -7.711  1.00  0.00     0.047 C
ATOM     38  C   UNL     1      26.396   7.949  -5.531  1.00  0.00     0.047 C
ATOM     39  C   UNL     1      26.524   9.166  -7.985  1.00  0.00     0.083 C
ATOM     40  C   UNL     1      25.280   7.634  -6.521  1.00  0.00     0.083 C
ATOM     41  N   UNL     1      25.230   8.577  -7.633  1.00  0.00    -0.317 NA
ATOM     42  H   UNL     1      24.815   8.127  -8.449  1.00  0.00     0.122 HD
ATOM     43  G   UNL     1      28.310   6.377  -6.100  1.00  0.00     0.000 C
ENDBRANCH  34  36
ENDBRANCH  28  31
ENDBRANCH   4  21
TORSDOF 0
ENDMDL
MODEL 7
REMARK VINA RESULT:     -10.7      1.969      3.735
REMARK SMILES Fc1cc2cc(F)c1CN1CCO[C@H](CNCC3(CCNCC3)n3cc(cn3)-c3cnc4cccc-2c4n3)C1
REMARK SMILES IDX 1 1 2 2 3 3 4 4 5 5 6 6 7 7 8 8 9 9 10 10 11 11 39 12 12 13
REMARK SMILES IDX 14 14 13 15 15 16 16 17 17 19 36 21 35 22 37 23 34 24 38 25
REMARK SMILES IDX 32 26 33 27 29 28 31 29 30 30 26 31 25 32 27 33 24 34 28 35
REMARK SMILES IDX 18 36 19 37 23 38 20 39 22 40 21 41
REMARK H PARENT 16 18 21 42
REMARK Flexibility Score:   78.900
ROOT
ATOM      1  F   UNL     1      32.194  14.889  -6.397  1.00  0.00    -0.207 F
ATOM      2  C   UNL     1      32.200  14.730  -5.065  1.00  0.00     0.131 A
ATOM      3  C   UNL     1      32.922  13.671  -4.524  1.00  0.00     0.048 A
ATOM      4  C   UNL     1      32.987  13.494  -3.135  1.00  0.00    -0.010 A
ATOM      5  C   UNL     1      32.273  14.378  -2.314  1.00  0.00     0.048 A
ATOM      6  C   UNL     1      31.558  15.434  -2.875  1.00  0.00     0.131 A
ATOM      7  F   UNL     1      30.907  16.271  -2.055  1.00  0.00    -0.207 F
ATOM      8  C   UNL     1      31.525  15.642  -4.255  1.00  0.00     0.038 A
ENDROOT
BRANCH   8   9
ATOM      9  C   UNL     1      30.852  16.851  -4.843  1.00  0.00     0.126 C
BRANCH   9  10
ATOM     10  N   UNL     1      29.671  16.506  -5.653  1.00  0.00    -0.294 NA
ATOM     11  C   UNL     1      29.021  17.703  -6.222  1.00  0.00     0.113 C
ATOM     12  C   UNL     1      28.695  15.679  -4.904  1.00  0.00     0.118 C
ATOM     13  C   UNL     1      27.721  18.092  -5.505  1.00  0.00     0.176 C
ATOM     14  C   UNL     1      27.298  15.721  -5.555  1.00  0.00     0.146 C
ATOM     15  O   UNL     1      26.735  17.052  -5.524  1.00  0.00    -0.374 OA
BRANCH  14  16
ATOM     16  C   UNL     1      26.287  14.782  -4.857  1.00  0.00     0.114 C
BRANCH  16  17
ATOM     17  N   UNL     1      26.169  13.395  -5.326  1.00  0.00    -0.312 NA
ATOM     18  H   UNL     1      26.673  12.758  -4.707  1.00  0.00     0.122 HD
BRANCH  17  19
ATOM     19  C   UNL     1      26.604  13.208  -6.716  1.00  0.00     0.111 C
ATOM     20  G   UNL     1      26.985  11.730  -7.088  1.00  0.00     0.000 C
ENDBRANCH  17  19
ENDBRANCH  16  17
ENDBRANCH  14  16
ENDBRANCH   9  10
ENDBRANCH   8   9
BRANCH   4  21
ATOM     21  C   UNL     1      33.843  12.449  -2.558  1.00  0.00     0.010 A
ATOM     22  C   UNL     1      35.009  12.810  -1.863  1.00  0.00     0.011 A
ATOM     23  C   UNL     1      33.487  11.092  -2.688  1.00  0.00     0.097 A
ATOM     24  C   UNL     1      35.814  11.834  -1.289  1.00  0.00     0.003 A
ATOM     25  N   UNL     1      32.374  10.730  -3.374  1.00  0.00    -0.244 NA
ATOM     26  C   UNL     1      34.310  10.106  -2.090  1.00  0.00     0.089 A
ATOM     27  C   UNL     1      35.454  10.494  -1.405  1.00  0.00     0.030 A
ATOM     28  C   UNL     1      32.078   9.413  -3.451  1.00  0.00     0.092 A
ATOM     29  N   UNL     1      34.012   8.795  -2.165  1.00  0.00    -0.252 NA
ATOM     30  C   UNL     1      32.889   8.468  -2.850  1.00  0.00     0.140 A
BRANCH  28  31
ATOM     31  C   UNL     1      30.887   9.055  -4.193  1.00  0.00     0.040 A
ATOM     32  C   UNL     1      30.604   7.791  -4.673  1.00  0.00     0.119 A
ATOM     33  C   UNL     1      29.765   9.818  -4.571  1.00  0.00     0.145 A
ATOM     34  N   UNL     1      29.384   7.860  -5.295  1.00  0.00    -0.265 N
ATOM     35  N   UNL     1      28.849   9.101  -5.222  1.00  0.00    -0.180 NA
BRANCH  34  36
ATOM     36  C   UNL     1      28.585   6.742  -5.851  1.00  0.00     0.078 C
ATOM     37  C   UNL     1      28.923   6.486  -7.353  1.00  0.00     0.047 C
ATOM     38  C   UNL     1      27.086   7.130  -5.704  1.00  0.00     0.047 C
ATOM     39  C   UNL     1      28.010   7.280  -8.282  1.00  0.00     0.083 C
ATOM     40  C   UNL     1      26.228   6.485  -6.787  1.00  0.00     0.083 C
ATOM     41  N   UNL     1      26.600   6.916  -8.131  1.00  0.00    -0.317 NA
ATOM     42  H   UNL     1      26.349   6.194  -8.806  1.00  0.00     0.122 HD
ATOM     43  G   UNL     1      28.839   5.404  -5.071  1.00  0.00     0.000 C
ENDBRANCH  34  36
ENDBRANCH  28  31
ENDBRANCH   4  21
TORSDOF 0
ENDMDL
MODEL 8
REMARK VINA RESULT:     -10.7      2.453      3.992
REMARK SMILES Fc1cc2cc(F)c1CN1CCO[C@H](CNCC3(CCNCC3)n3cc(cn3)-c3cnc4cccc-2c4n3)C1
REMARK SMILES IDX 1 1 2 2 3 3 4 4 5 5 6 6 7 7 8 8 9 9 10 10 11 11 39 12 12 13
REMARK SMILES IDX 14 14 13 15 15 16 16 17 17 19 36 21 35 22 37 23 34 24 38 25
REMARK SMILES IDX 32 26 33 27 29 28 31 29 30 30 26 31 25 32 27 33 24 34 28 35
REMARK SMILES IDX 18 36 19 37 23 38 20 39 22 40 21 41
REMARK H PARENT 16 18 21 42
REMARK Flexibility Score:   78.900
ROOT
ATOM      1  F   UNL     1      30.453  16.124  -1.932  1.00  0.00    -0.207 F
ATOM      2  C   UNL     1      31.188  15.449  -2.827  1.00  0.00     0.131 A
ATOM      3  C   UNL     1      32.027  14.436  -2.373  1.00  0.00     0.048 A
ATOM      4  C   UNL     1      32.781  13.680  -3.281  1.00  0.00    -0.010 A
ATOM      5  C   UNL     1      32.705  14.001  -4.643  1.00  0.00     0.048 A
ATOM      6  C   UNL     1      31.857  15.017  -5.078  1.00  0.00     0.131 A
ATOM      7  F   UNL     1      31.796  15.278  -6.393  1.00  0.00    -0.207 F
ATOM      8  C   UNL     1      31.071  15.745  -4.185  1.00  0.00     0.038 A
ENDROOT
BRANCH   8   9
ATOM      9  C   UNL     1      30.071  16.756  -4.673  1.00  0.00     0.126 C
BRANCH   9  10
ATOM     10  N   UNL     1      29.227  16.239  -5.764  1.00  0.00    -0.294 NA
ATOM     11  C   UNL     1      28.638  17.326  -6.571  1.00  0.00     0.113 C
ATOM     12  C   UNL     1      28.177  15.315  -5.275  1.00  0.00     0.118 C
ATOM     13  C   UNL     1      27.149  17.564  -6.283  1.00  0.00     0.176 C
ATOM     14  C   UNL     1      27.036  15.158  -6.300  1.00  0.00     0.146 C
ATOM     15  O   UNL     1      26.339  16.405  -6.518  1.00  0.00    -0.374 OA
BRANCH  14  16
ATOM     16  C   UNL     1      25.981  14.116  -5.862  1.00  0.00     0.114 C
BRANCH  16  17
ATOM     17  N   UNL     1      24.744  13.989  -6.644  1.00  0.00    -0.312 NA
ATOM     18  H   UNL     1      24.068  13.394  -6.163  1.00  0.00     0.122 HD
BRANCH  17  19
ATOM     19  C   UNL     1      24.964  13.505  -8.014  1.00  0.00     0.111 C
ATOM     20  G   UNL     1      24.606  14.541  -9.138  1.00  0.00     0.000 C
ENDBRANCH  17  19
ENDBRANCH  16  17
ENDBRANCH  14  16
ENDBRANCH   9  10
ENDBRANCH   8   9
BRANCH   4  21
ATOM     21  C   UNL     1      33.576  12.535  -2.815  1.00  0.00     0.010 A
ATOM     22  C   UNL     1      34.820  12.756  -2.204  1.00  0.00     0.011 A
ATOM     23  C   UNL     1      33.084  11.225  -2.969  1.00  0.00     0.097 A
ATOM     24  C   UNL     1      35.572  11.686  -1.735  1.00  0.00     0.003 A
ATOM     25  N   UNL     1      31.892  10.997  -3.576  1.00  0.00    -0.244 NA
ATOM     26  C   UNL     1      33.853  10.141  -2.477  1.00  0.00     0.089 A
ATOM     27  C   UNL     1      35.078  10.391  -1.873  1.00  0.00     0.030 A
ATOM     28  C   UNL     1      31.468   9.718  -3.679  1.00  0.00     0.092 A
ATOM     29  N   UNL     1      33.427   8.867  -2.578  1.00  0.00    -0.252 NA
ATOM     30  C   UNL     1      32.229   8.676  -3.182  1.00  0.00     0.140 A
BRANCH  28  31
ATOM     31  C   UNL     1      30.194   9.504  -4.336  1.00  0.00     0.040 A
ATOM     32  C   UNL     1      29.826   8.344  -4.988  1.00  0.00     0.119 A
ATOM     33  C   UNL     1      29.061  10.332  -4.453  1.00  0.00     0.145 A
ATOM     34  N   UNL     1      28.548   8.531  -5.452  1.00  0.00    -0.265 N
ATOM     35  N   UNL     1      28.061   9.747  -5.111  1.00  0.00    -0.180 NA
BRANCH  34  36
ATOM     36  C   UNL     1      27.663   7.533  -6.098  1.00  0.00     0.078 C
ATOM     37  C   UNL     1      26.157   7.845  -5.834  1.00  0.00     0.047 C
ATOM     38  C   UNL     1      28.028   6.143  -5.505  1.00  0.00     0.047 C
ATOM     39  C   UNL     1      25.642   7.135  -4.587  1.00  0.00     0.083 C
ATOM     40  C   UNL     1      26.834   5.195  -5.514  1.00  0.00     0.083 C
ATOM     41  N   UNL     1      25.727   5.677  -4.694  1.00  0.00    -0.317 NA
ATOM     42  H   UNL     1      24.847   5.298  -5.045  1.00  0.00     0.122 HD
ATOM     43  G   UNL     1      27.876   7.491  -7.653  1.00  0.00     0.000 C
ENDBRANCH  34  36
ENDBRANCH  28  31
ENDBRANCH   4  21
TORSDOF 0
ENDMDL
MODEL 9
REMARK VINA RESULT:     -10.6      1.480      2.692
REMARK SMILES Fc1cc2cc(F)c1CN1CCO[C@H](CNCC3(CCNCC3)n3cc(cn3)-c3cnc4cccc-2c4n3)C1
REMARK SMILES IDX 1 1 2 2 3 3 4 4 5 5 6 6 7 7 8 8 9 9 10 10 11 11 39 12 12 13
REMARK SMILES IDX 14 14 13 15 15 16 16 17 17 19 36 21 35 22 37 23 34 24 38 25
REMARK SMILES IDX 32 26 33 27 29 28 31 29 30 30 26 31 25 32 27 33 24 34 28 35
REMARK SMILES IDX 18 36 19 37 23 38 20 39 22 40 21 41
REMARK H PARENT 16 18 21 42
REMARK Flexibility Score:   78.900
ROOT
ATOM      1  F   UNL     1      30.617  16.383  -1.769  1.00  0.00    -0.207 F
ATOM      2  C   UNL     1      31.242  15.670  -2.718  1.00  0.00     0.131 A
ATOM      3  C   UNL     1      32.113  14.659  -2.327  1.00  0.00     0.048 A
ATOM      4  C   UNL     1      32.754  13.864  -3.288  1.00  0.00    -0.010 A
ATOM      5  C   UNL     1      32.532  14.144  -4.643  1.00  0.00     0.048 A
ATOM      6  C   UNL     1      31.653  15.160  -5.014  1.00  0.00     0.131 A
ATOM      7  F   UNL     1      31.449  15.382  -6.321  1.00  0.00    -0.207 F
ATOM      8  C   UNL     1      30.978  15.926  -4.063  1.00  0.00     0.038 A
ENDROOT
BRANCH   8   9
ATOM      9  C   UNL     1      29.943  16.937  -4.470  1.00  0.00     0.126 C
BRANCH   9  10
ATOM     10  N   UNL     1      30.512  18.053  -5.245  1.00  0.00    -0.294 NA
ATOM     11  C   UNL     1      31.541  18.788  -4.483  1.00  0.00     0.113 C
ATOM     12  C   UNL     1      29.470  18.976  -5.754  1.00  0.00     0.118 C
ATOM     13  C   UNL     1      31.055  20.143  -3.949  1.00  0.00     0.176 C
ATOM     14  C   UNL     1      30.064  20.348  -6.134  1.00  0.00     0.146 C
ATOM     15  O   UNL     1      30.612  21.029  -4.984  1.00  0.00    -0.374 OA
BRANCH  14  16
ATOM     16  C   UNL     1      29.018  21.293  -6.769  1.00  0.00     0.114 C
BRANCH  16  17
ATOM     17  N   UNL     1      27.615  21.184  -6.347  1.00  0.00    -0.312 NA
ATOM     18  H   UNL     1      27.491  20.409  -5.694  1.00  0.00     0.122 HD
BRANCH  17  19
ATOM     19  C   UNL     1      26.674  21.063  -7.467  1.00  0.00     0.111 C
ATOM     20  G   UNL     1      26.964  19.863  -8.437  1.00  0.00     0.000 C
ENDBRANCH  17  19
ENDBRANCH  16  17
ENDBRANCH  14  16
ENDBRANCH   9  10
ENDBRANCH   8   9
BRANCH   4  21
ATOM     21  C   UNL     1      33.581  12.722  -2.876  1.00  0.00     0.010 A
ATOM     22  C   UNL     1      34.843  12.949  -2.304  1.00  0.00     0.011 A
ATOM     23  C   UNL     1      33.104  11.408  -3.042  1.00  0.00     0.097 A
ATOM     24  C   UNL     1      35.626  11.881  -1.885  1.00  0.00     0.003 A
ATOM     25  N   UNL     1      31.896  11.175  -3.612  1.00  0.00    -0.244 NA
ATOM     26  C   UNL     1      33.907  10.325  -2.602  1.00  0.00     0.089 A
ATOM     27  C   UNL     1      35.148  10.581  -2.035  1.00  0.00     0.030 A
ATOM     28  C   UNL     1      31.487   9.892  -3.730  1.00  0.00     0.092 A
ATOM     29  N   UNL     1      33.497   9.048  -2.717  1.00  0.00    -0.252 NA
ATOM     30  C   UNL     1      32.281   8.851  -3.283  1.00  0.00     0.140 A
BRANCH  28  31
ATOM     31  C   UNL     1      30.195   9.672  -4.346  1.00  0.00     0.040 A
ATOM     32  C   UNL     1      29.817   8.516  -5.001  1.00  0.00     0.119 A
ATOM     33  C   UNL     1      29.050  10.490  -4.416  1.00  0.00     0.145 A
ATOM     34  N   UNL     1      28.523   8.695  -5.419  1.00  0.00    -0.265 N
ATOM     35  N   UNL     1      28.035   9.902  -5.048  1.00  0.00    -0.180 NA
BRANCH  34  36
ATOM     36  C   UNL     1      27.627   7.696  -6.048  1.00  0.00     0.078 C
ATOM     37  C   UNL     1      27.459   7.957  -7.578  1.00  0.00     0.047 C
ATOM     38  C   UNL     1      26.248   7.803  -5.338  1.00  0.00     0.047 C
ATOM     39  C   UNL     1      26.262   8.856  -7.871  1.00  0.00     0.083 C
ATOM     40  C   UNL     1      25.105   7.401  -6.263  1.00  0.00     0.083 C
ATOM     41  N   UNL     1      24.995   8.266  -7.433  1.00  0.00    -0.317 NA
ATOM     42  H   UNL     1      24.562   7.754  -8.201  1.00  0.00     0.122 HD
ATOM     43  G   UNL     1      28.174   6.235  -5.872  1.00  0.00     0.000 C
ENDBRANCH  34  36
ENDBRANCH  28  31
ENDBRANCH   4  21
TORSDOF 0
ENDMDL
