MODEL 1
REMARK VINA RESULT:     -10.5      0.000      0.000
REMARK SMILES Fc1cc2cc(F)c1CN1CCOC[C@@H]1COC[C@H]1CNCC[C@H]1n1cc(cn1)-c1cnc3cccc-2c3n1
REMARK SMILES IDX 1 1 2 2 3 3 4 4 5 5 6 6 7 7 8 8 9 9 10 10 11 11 15 12 12 13
REMARK SMILES IDX 14 14 13 15 16 16 17 17 18 18 37 20 36 21 38 22 35 23 39 24
REMARK SMILES IDX 33 25 34 26 30 27 32 28 31 29 27 30 26 31 28 32 25 33 29 34
REMARK SMILES IDX 24 35 23 36 19 37 22 38 20 39 21 40
REMARK H PARENT 21 41
REMARK Flexibility Score:   78.900
ROOT
ATOM      1  F   UNL     1      30.688  15.972  -1.650  1.00  0.00    -0.207 F
ATOM      2  C   UNL     1      31.406  15.306  -2.565  1.00  0.00     0.131 A
ATOM      3  C   UNL     1      32.353  14.385  -2.120  1.00  0.00     0.048 A
ATOM      4  C   UNL     1      33.080  13.619  -3.040  1.00  0.00    -0.010 A
ATOM      5  C   UNL     1      32.897  13.875  -4.408  1.00  0.00     0.048 A
ATOM      6  C   UNL     1      31.947  14.801  -4.834  1.00  0.00     0.131 A
ATOM      7  F   UNL     1      31.787  14.990  -6.152  1.00  0.00    -0.207 F
ATOM      8  C   UNL     1      31.147  15.492  -3.925  1.00  0.00     0.038 A
ENDROOT
BRANCH   8   9
ATOM      9  C   UNL     1      30.031  16.392  -4.376  1.00  0.00     0.126 C
BRANCH   9  10
ATOM     10  N   UNL     1      30.109  16.857  -5.786  1.00  0.00    -0.289 NA
ATOM     11  C   UNL     1      30.866  18.141  -5.811  1.00  0.00     0.114 C
ATOM     12  C   UNL     1      28.796  17.121  -6.451  1.00  0.00     0.108 C
ATOM     13  C   UNL     1      29.998  19.421  -5.801  1.00  0.00     0.175 C
ATOM     14  C   UNL     1      27.962  18.194  -5.706  1.00  0.00     0.181 C
ATOM     15  O   UNL     1      28.769  19.223  -5.099  1.00  0.00    -0.378 OA
BRANCH  12  16
ATOM     16  C   UNL     1      27.942  15.891  -6.833  1.00  0.00     0.181 C
BRANCH  16  17
ATOM     17  O   UNL     1      28.683  14.663  -6.856  1.00  0.00    -0.379 OA
BRANCH  17  18
ATOM     18  C   UNL     1      28.011  13.549  -6.255  1.00  0.00     0.167 C
ATOM     19  G   UNL     1      27.280  14.079  -5.004  1.00  0.00     0.000 C
ENDBRANCH  17  18
ENDBRANCH  16  17
ENDBRANCH  12  16
ENDBRANCH   9  10
ENDBRANCH   8   9
BRANCH   4  20
ATOM     20  C   UNL     1      33.890  12.477  -2.581  1.00  0.00     0.010 A
ATOM     21  C   UNL     1      35.100  12.683  -1.904  1.00  0.00     0.011 A
ATOM     22  C   UNL     1      33.405  11.168  -2.770  1.00  0.00     0.097 A
ATOM     23  C   UNL     1      35.821  11.598  -1.416  1.00  0.00     0.003 A
ATOM     24  N   UNL     1      32.245  10.967  -3.430  1.00  0.00    -0.244 NA
ATOM     25  C   UNL     1      34.129  10.066  -2.249  1.00  0.00     0.089 A
ATOM     26  C   UNL     1      35.327  10.305  -1.588  1.00  0.00     0.030 A
ATOM     27  C   UNL     1      31.793   9.705  -3.547  1.00  0.00     0.092 A
ATOM     28  N   UNL     1      33.674   8.799  -2.373  1.00  0.00    -0.252 NA
ATOM     29  C   UNL     1      32.493   8.639  -3.022  1.00  0.00     0.140 A
BRANCH  27  30
ATOM     30  C   UNL     1      30.565   9.570  -4.282  1.00  0.00     0.040 A
ATOM     31  C   UNL     1      30.157   8.446  -4.969  1.00  0.00     0.119 A
ATOM     32  C   UNL     1      29.444  10.423  -4.298  1.00  0.00     0.145 A
ATOM     33  N   UNL     1      28.849   8.670  -5.313  1.00  0.00    -0.269 N
ATOM     34  N   UNL     1      28.423   9.907  -4.984  1.00  0.00    -0.181 NA
BRANCH  33  35
ATOM     35  C   UNL     1      27.933   7.706  -5.919  1.00  0.00     0.115 C
ATOM     36  C   UNL     1      28.368   6.243  -5.723  1.00  0.00     0.043 C
ATOM     37  C   UNL     1      27.639   8.022  -7.409  1.00  0.00     0.053 C
ATOM     38  C   UNL     1      27.386   5.281  -6.379  1.00  0.00     0.083 C
ATOM     39  C   UNL     1      26.690   6.954  -7.970  1.00  0.00     0.089 C
ATOM     40  N   UNL     1      27.208   5.600  -7.794  1.00  0.00    -0.316 NA
ATOM     41  H   UNL     1      26.557   4.931  -8.209  1.00  0.00     0.122 HD
ATOM     42  G   UNL     1      28.917   8.147  -8.264  1.00  0.00     0.000 C
ENDBRANCH  33  35
ENDBRANCH  27  30
ENDBRANCH   4  20
TORSDOF 0
ENDMDL
MODEL 2
REMARK VINA RESULT:     -10.4      0.787      2.248
REMARK SMILES Fc1cc2cc(F)c1CN1CCOC[C@@H]1COC[C@H]1CNCC[C@H]1n1cc(cn1)-c1cnc3cccc-2c3n1
REMARK SMILES IDX 1 1 2 2 3 3 4 4 5 5 6 6 7 7 8 8 9 9 10 10 11 11 15 12 12 13
REMARK SMILES IDX 14 14 13 15 16 16 17 17 18 18 37 20 36 21 38 22 35 23 39 24
REMARK SMILES IDX 33 25 34 26 30 27 32 28 31 29 27 30 26 31 28 32 25 33 29 34
REMARK SMILES IDX 24 35 23 36 19 37 22 38 20 39 21 40
REMARK H PARENT 21 41
REMARK Flexibility Score:   78.900
ROOT
ATOM      1  F   UNL     1      31.294  16.256  -2.146  1.00  0.00    -0.207 F
ATOM      2  C   UNL     1      31.857  15.337  -2.945  1.00  0.00     0.131 A
ATOM      3  C   UNL     1      32.770  14.446  -2.384  1.00  0.00     0.048 A
ATOM      4  C   UNL     1      33.333  13.429  -3.166  1.00  0.00    -0.010 A
ATOM      5  C   UNL     1      33.028  13.397  -4.536  1.00  0.00     0.048 A
ATOM      6  C   UNL     1      32.114  14.299  -5.078  1.00  0.00     0.131 A
ATOM      7  F   UNL     1      31.831  14.211  -6.385  1.00  0.00    -0.207 F
ATOM      8  C   UNL     1      31.471  15.247  -4.284  1.00  0.00     0.038 A
ENDROOT
BRANCH   8   9
ATOM      9  C   UNL     1      30.388  16.135  -4.830  1.00  0.00     0.126 C
BRANCH   9  10
ATOM     10  N   UNL     1      29.001  15.779  -4.431  1.00  0.00    -0.289 NA
ATOM     11  C   UNL     1      28.936  14.302  -4.241  1.00  0.00     0.114 C
ATOM     12  C   UNL     1      27.936  16.131  -5.420  1.00  0.00     0.108 C
ATOM     13  C   UNL     1      28.421  13.500  -5.458  1.00  0.00     0.175 C
ATOM     14  C   UNL     1      28.158  15.451  -6.795  1.00  0.00     0.181 C
ATOM     15  O   UNL     1      28.750  14.141  -6.693  1.00  0.00    -0.378 OA
BRANCH  12  16
ATOM     16  C   UNL     1      27.581  17.628  -5.567  1.00  0.00     0.181 C
BRANCH  16  17
ATOM     17  O   UNL     1      28.329  18.297  -6.591  1.00  0.00    -0.379 OA
BRANCH  17  18
ATOM     18  C   UNL     1      28.849  19.577  -6.211  1.00  0.00     0.167 C
ATOM     19  G   UNL     1      30.386  19.493  -6.316  1.00  0.00     0.000 C
ENDBRANCH  17  18
ENDBRANCH  16  17
ENDBRANCH  12  16
ENDBRANCH   9  10
ENDBRANCH   8   9
BRANCH   4  20
ATOM     20  C   UNL     1      34.095  12.338  -2.531  1.00  0.00     0.010 A
ATOM     21  C   UNL     1      35.246  12.613  -1.779  1.00  0.00     0.011 A
ATOM     22  C   UNL     1      33.619  11.016  -2.630  1.00  0.00     0.097 A
ATOM     23  C   UNL     1      35.916  11.582  -1.129  1.00  0.00     0.003 A
ATOM     24  N   UNL     1      32.517  10.750  -3.362  1.00  0.00    -0.244 NA
ATOM     25  C   UNL     1      34.289   9.973  -1.945  1.00  0.00     0.089 A
ATOM     26  C   UNL     1      35.430  10.277  -1.213  1.00  0.00     0.030 A
ATOM     27  C   UNL     1      32.068   9.481  -3.392  1.00  0.00     0.092 A
ATOM     28  N   UNL     1      33.838   8.699  -1.982  1.00  0.00    -0.252 NA
ATOM     29  C   UNL     1      32.715   8.473  -2.708  1.00  0.00     0.140 A
BRANCH  27  30
ATOM     30  C   UNL     1      30.904   9.272  -4.210  1.00  0.00     0.040 A
ATOM     31  C   UNL     1      30.541   8.082  -4.804  1.00  0.00     0.119 A
ATOM     32  C   UNL     1      29.801  10.123  -4.413  1.00  0.00     0.145 A
ATOM     33  N   UNL     1      29.270   8.273  -5.281  1.00  0.00    -0.269 N
ATOM     34  N   UNL     1      28.834   9.540  -5.124  1.00  0.00    -0.181 NA
BRANCH  33  35
ATOM     35  C   UNL     1      28.395   7.253  -5.856  1.00  0.00     0.115 C
ATOM     36  C   UNL     1      28.999   5.837  -5.815  1.00  0.00     0.043 C
ATOM     37  C   UNL     1      27.903   7.626  -7.279  1.00  0.00     0.053 C
ATOM     38  C   UNL     1      28.054   4.815  -6.433  1.00  0.00     0.083 C
ATOM     39  C   UNL     1      27.012   6.496  -7.813  1.00  0.00     0.089 C
ATOM     40  N   UNL     1      27.684   5.199  -7.793  1.00  0.00    -0.316 NA
ATOM     41  H   UNL     1      27.063   4.489  -8.185  1.00  0.00     0.122 HD
ATOM     42  G   UNL     1      29.057   7.944  -8.253  1.00  0.00     0.000 C
ENDBRANCH  33  35
ENDBRANCH  27  30
ENDBRANCH   4  20
TORSDOF 0
ENDMDL
MODEL 3
REMARK VINA RESULT:     -10.3      1.529      2.719
REMARK SMILES Fc1cc2cc(F)c1CN1CCOC[C@@H]1COC[C@H]1CNCC[C@H]1n1cc(cn1)-c1cnc3cccc-2c3n1
REMARK SMILES IDX 1 1 2 2 3 3 4 4 5 5 6 6 7 7 8 8 9 9 10 10 11 11 15 12 12 13
REMARK SMILES IDX 14 14 13 15 16 16 17 17 18 18 37 20 36 21 38 22 35 23 39 24
REMARK SMILES IDX 33 25 34 26 30 27 32 28 31 29 27 30 26 31 28 32 25 33 29 34
REMARK SMILES IDX 24 35 23 36 19 37 22 38 20 39 21 40
REMARK H PARENT 21 41
REMARK Flexibility Score:   78.900
ROOT
ATOM      1  F   UNL     1      30.580  15.923  -2.070  1.00  0.00    -0.207 F
ATOM      2  C   UNL     1      31.165  15.006  -2.854  1.00  0.00     0.131 A
ATOM      3  C   UNL     1      32.284  14.335  -2.363  1.00  0.00     0.048 A
ATOM      4  C   UNL     1      32.888  13.324  -3.120  1.00  0.00    -0.010 A
ATOM      5  C   UNL     1      32.398  13.078  -4.412  1.00  0.00     0.048 A
ATOM      6  C   UNL     1      31.279  13.761  -4.886  1.00  0.00     0.131 A
ATOM      7  F   UNL     1      30.829  13.471  -6.116  1.00  0.00    -0.207 F
ATOM      8  C   UNL     1      30.610  14.695  -4.097  1.00  0.00     0.038 A
ENDROOT
BRANCH   8   9
ATOM      9  C   UNL     1      29.328  15.338  -4.546  1.00  0.00     0.126 C
BRANCH   9  10
ATOM     10  N   UNL     1      29.392  16.804  -4.784  1.00  0.00    -0.289 NA
ATOM     11  C   UNL     1      28.027  17.368  -4.580  1.00  0.00     0.114 C
ATOM     12  C   UNL     1      29.826  17.216  -6.154  1.00  0.00     0.108 C
ATOM     13  C   UNL     1      27.187  17.547  -5.866  1.00  0.00     0.175 C
ATOM     14  C   UNL     1      28.897  16.658  -7.261  1.00  0.00     0.181 C
ATOM     15  O   UNL     1      27.517  16.569  -6.856  1.00  0.00    -0.378 OA
BRANCH  12  16
ATOM     16  C   UNL     1      31.320  17.027  -6.505  1.00  0.00     0.181 C
BRANCH  16  17
ATOM     17  O   UNL     1      32.212  17.489  -5.483  1.00  0.00    -0.379 OA
BRANCH  17  18
ATOM     18  C   UNL     1      33.266  18.341  -5.950  1.00  0.00     0.167 C
ATOM     19  G   UNL     1      33.927  17.630  -7.150  1.00  0.00     0.000 C
ENDBRANCH  17  18
ENDBRANCH  16  17
ENDBRANCH  12  16
ENDBRANCH   9  10
ENDBRANCH   8   9
BRANCH   4  20
ATOM     20  C   UNL     1      33.903  12.445  -2.512  1.00  0.00     0.010 A
ATOM     21  C   UNL     1      35.015  12.986  -1.851  1.00  0.00     0.011 A
ATOM     22  C   UNL     1      33.714  11.049  -2.541  1.00  0.00     0.097 A
ATOM     23  C   UNL     1      35.929  12.147  -1.223  1.00  0.00     0.003 A
ATOM     24  N   UNL     1      32.649  10.527  -3.185  1.00  0.00    -0.244 NA
ATOM     25  C   UNL     1      34.633  10.200  -1.877  1.00  0.00     0.089 A
ATOM     26  C   UNL     1      35.727  10.767  -1.237  1.00  0.00     0.030 A
ATOM     27  C   UNL     1      32.479   9.192  -3.149  1.00  0.00     0.092 A
ATOM     28  N   UNL     1      34.461   8.859  -1.847  1.00  0.00    -0.252 NA
ATOM     29  C   UNL     1      33.367   8.372  -2.485  1.00  0.00     0.140 A
BRANCH  27  30
ATOM     30  C   UNL     1      31.336   8.710  -3.876  1.00  0.00     0.040 A
ATOM     31  C   UNL     1      30.500   9.475  -4.661  1.00  0.00     0.119 A
ATOM     32  C   UNL     1      30.942   7.381  -4.125  1.00  0.00     0.145 A
ATOM     33  N   UNL     1      29.705   8.587  -5.339  1.00  0.00    -0.269 N
ATOM     34  N   UNL     1      29.905   7.308  -4.961  1.00  0.00    -0.181 NA
BRANCH  33  35
ATOM     35  C   UNL     1      28.762   8.906  -6.409  1.00  0.00     0.115 C
ATOM     36  C   UNL     1      27.999  10.223  -6.177  1.00  0.00     0.043 C
ATOM     37  C   UNL     1      27.799   7.732  -6.722  1.00  0.00     0.053 C
ATOM     38  C   UNL     1      27.024  10.504  -7.313  1.00  0.00     0.083 C
ATOM     39  C   UNL     1      26.834   8.158  -7.837  1.00  0.00     0.089 C
ATOM     40  N   UNL     1      26.108   9.383  -7.508  1.00  0.00    -0.316 NA
ATOM     41  H   UNL     1      25.460   9.607  -8.265  1.00  0.00     0.122 HD
ATOM     42  G   UNL     1      27.038   7.227  -5.478  1.00  0.00     0.000 C
ENDBRANCH  33  35
ENDBRANCH  27  30
ENDBRANCH   4  20
TORSDOF 0
ENDMDL
MODEL 4
REMARK VINA RESULT:     -10.3      2.555      8.000
REMARK SMILES Fc1cc2cc(F)c1CN1CCOC[C@@H]1COC[C@H]1CNCC[C@H]1n1cc(cn1)-c1cnc3cccc-2c3n1
REMARK SMILES IDX 1 1 2 2 3 3 4 4 5 5 6 6 7 7 8 8 9 9 10 10 11 11 15 12 12 13
REMARK SMILES IDX 14 14 13 15 16 16 17 17 18 18 37 20 36 21 38 22 35 23 39 24
REMARK SMILES IDX 33 25 34 26 30 27 32 28 31 29 27 30 26 31 28 32 25 33 29 34
REMARK SMILES IDX 24 35 23 36 19 37 22 38 20 39 21 40
REMARK H PARENT 21 41
REMARK Flexibility Score:   78.900
ROOT
ATOM      1  F   UNL     1      30.478   6.484  -4.615  1.00  0.00    -0.207 F
ATOM      2  C   UNL     1      30.650   7.800  -4.429  1.00  0.00     0.131 A
ATOM      3  C   UNL     1      31.638   8.218  -3.539  1.00  0.00     0.048 A
ATOM      4  C   UNL     1      31.898   9.583  -3.362  1.00  0.00    -0.010 A
ATOM      5  C   UNL     1      31.076  10.507  -4.027  1.00  0.00     0.048 A
ATOM      6  C   UNL     1      30.091  10.069  -4.911  1.00  0.00     0.131 A
ATOM      7  F   UNL     1      29.350  10.989  -5.545  1.00  0.00    -0.207 F
ATOM      8  C   UNL     1      29.897   8.713  -5.170  1.00  0.00     0.038 A
ENDROOT
BRANCH   8   9
ATOM      9  C   UNL     1      28.931   8.238  -6.218  1.00  0.00     0.126 C
BRANCH   9  10
ATOM     10  N   UNL     1      27.510   8.615  -6.003  1.00  0.00    -0.289 NA
ATOM     11  C   UNL     1      26.824   7.480  -5.323  1.00  0.00     0.114 C
ATOM     12  C   UNL     1      26.726   8.908  -7.243  1.00  0.00     0.108 C
ATOM     13  C   UNL     1      26.063   6.511  -6.257  1.00  0.00     0.175 C
ATOM     14  C   UNL     1      26.691   7.704  -8.218  1.00  0.00     0.181 C
ATOM     15  O   UNL     1      26.675   6.428  -7.547  1.00  0.00    -0.378 OA
BRANCH  12  16
ATOM     16  C   UNL     1      27.038  10.233  -7.975  1.00  0.00     0.181 C
BRANCH  16  17
ATOM     17  O   UNL     1      26.903  11.394  -7.144  1.00  0.00    -0.379 OA
BRANCH  17  18
ATOM     18  C   UNL     1      26.642  12.611  -7.854  1.00  0.00     0.167 C
ATOM     19  G   UNL     1      27.560  13.695  -7.251  1.00  0.00     0.000 C
ENDBRANCH  17  18
ENDBRANCH  16  17
ENDBRANCH  12  16
ENDBRANCH   9  10
ENDBRANCH   8   9
BRANCH   4  20
ATOM     20  C   UNL     1      33.096  10.023  -2.626  1.00  0.00     0.010 A
ATOM     21  C   UNL     1      33.850   9.110  -1.875  1.00  0.00     0.011 A
ATOM     22  C   UNL     1      33.519  11.362  -2.734  1.00  0.00     0.097 A
ATOM     23  C   UNL     1      35.016   9.524  -1.240  1.00  0.00     0.003 A
ATOM     24  N   UNL     1      32.789  12.243  -3.449  1.00  0.00    -0.244 NA
ATOM     25  C   UNL     1      34.722  11.774  -2.109  1.00  0.00     0.089 A
ATOM     26  C   UNL     1      35.442  10.847  -1.367  1.00  0.00     0.030 A
ATOM     27  C   UNL     1      33.253  13.502  -3.568  1.00  0.00     0.092 A
ATOM     28  N   UNL     1      35.182  13.040  -2.226  1.00  0.00    -0.252 NA
ATOM     29  C   UNL     1      34.434  13.892  -2.971  1.00  0.00     0.140 A
BRANCH  27  30
ATOM     30  C   UNL     1      32.409  14.387  -4.324  1.00  0.00     0.040 A
ATOM     31  C   UNL     1      32.240  15.735  -4.087  1.00  0.00     0.119 A
ATOM     32  C   UNL     1      31.758  14.156  -5.550  1.00  0.00     0.145 A
ATOM     33  N   UNL     1      31.551  16.222  -5.168  1.00  0.00    -0.269 N
ATOM     34  N   UNL     1      31.176  15.256  -6.031  1.00  0.00    -0.181 NA
BRANCH  33  35
ATOM     35  C   UNL     1      31.266  17.626  -5.455  1.00  0.00     0.115 C
ATOM     36  C   UNL     1      31.721  18.583  -4.338  1.00  0.00     0.043 C
ATOM     37  C   UNL     1      29.784  17.864  -5.845  1.00  0.00     0.053 C
ATOM     38  C   UNL     1      31.393  20.030  -4.682  1.00  0.00     0.083 C
ATOM     39  C   UNL     1      29.568  19.360  -6.108  1.00  0.00     0.089 C
ATOM     40  N   UNL     1      29.970  20.189  -4.975  1.00  0.00    -0.316 NA
ATOM     41  H   UNL     1      29.780  21.170  -5.187  1.00  0.00     0.122 HD
ATOM     42  G   UNL     1      28.789  17.325  -4.796  1.00  0.00     0.000 C
ENDBRANCH  33  35
ENDBRANCH  27  30
ENDBRANCH   4  20
TORSDOF 0
ENDMDL
MODEL 5
REMARK VINA RESULT:     -10.3      0.904      1.778
REMARK SMILES Fc1cc2cc(F)c1CN1CCOC[C@@H]1COC[C@H]1CNCC[C@H]1n1cc(cn1)-c1cnc3cccc-2c3n1
REMARK SMILES IDX 1 1 2 2 3 3 4 4 5 5 6 6 7 7 8 8 9 9 10 10 11 11 15 12 12 13
REMARK SMILES IDX 14 14 13 15 16 16 17 17 18 18 37 20 36 21 38 22 35 23 39 24
REMARK SMILES IDX 33 25 34 26 30 27 32 28 31 29 27 30 26 31 28 32 25 33 29 34
REMARK SMILES IDX 24 35 23 36 19 37 22 38 20 39 21 40
REMARK H PARENT 21 41
REMARK Flexibility Score:   78.900
ROOT
ATOM      1  F   UNL     1      32.639  15.568  -6.288  1.00  0.00    -0.207 F
ATOM      2  C   UNL     1      32.456  15.180  -5.017  1.00  0.00     0.131 A
ATOM      3  C   UNL     1      32.980  13.951  -4.620  1.00  0.00     0.048 A
ATOM      4  C   UNL     1      32.871  13.535  -3.287  1.00  0.00    -0.010 A
ATOM      5  C   UNL     1      32.141  14.340  -2.398  1.00  0.00     0.048 A
ATOM      6  C   UNL     1      31.623  15.565  -2.815  1.00  0.00     0.131 A
ATOM      7  F   UNL     1      30.959  16.313  -1.922  1.00  0.00    -0.207 F
ATOM      8  C   UNL     1      31.818  16.032  -4.113  1.00  0.00     0.038 A
ENDROOT
BRANCH   8   9
ATOM      9  C   UNL     1      31.380  17.407  -4.535  1.00  0.00     0.126 C
BRANCH   9  10
ATOM     10  N   UNL     1      30.817  17.511  -5.906  1.00  0.00    -0.289 NA
ATOM     11  C   UNL     1      30.896  18.937  -6.334  1.00  0.00     0.114 C
ATOM     12  C   UNL     1      29.386  17.099  -6.048  1.00  0.00     0.108 C
ATOM     13  C   UNL     1      29.608  19.764  -6.117  1.00  0.00     0.175 C
ATOM     14  C   UNL     1      28.440  17.933  -5.148  1.00  0.00     0.181 C
ATOM     15  O   UNL     1      28.863  19.301  -4.989  1.00  0.00    -0.378 OA
BRANCH  12  16
ATOM     16  C   UNL     1      29.079  15.587  -5.965  1.00  0.00     0.181 C
BRANCH  16  17
ATOM     17  O   UNL     1      28.406  15.204  -4.758  1.00  0.00    -0.379 OA
BRANCH  17  18
ATOM     18  C   UNL     1      27.357  14.244  -4.938  1.00  0.00     0.167 C
ATOM     19  G   UNL     1      26.299  14.892  -5.854  1.00  0.00     0.000 C
ENDBRANCH  17  18
ENDBRANCH  16  17
ENDBRANCH  12  16
ENDBRANCH   9  10
ENDBRANCH   8   9
BRANCH   4  20
ATOM     20  C   UNL     1      33.633  12.369  -2.807  1.00  0.00     0.010 A
ATOM     21  C   UNL     1      34.842  12.539  -2.119  1.00  0.00     0.011 A
ATOM     22  C   UNL     1      33.104  11.076  -2.989  1.00  0.00     0.097 A
ATOM     23  C   UNL     1      35.518  11.433  -1.612  1.00  0.00     0.003 A
ATOM     24  N   UNL     1      31.945  10.911  -3.660  1.00  0.00    -0.244 NA
ATOM     25  C   UNL     1      33.780   9.955  -2.448  1.00  0.00     0.089 A
ATOM     26  C   UNL     1      34.979  10.157  -1.776  1.00  0.00     0.030 A
ATOM     27  C   UNL     1      31.448   9.665  -3.770  1.00  0.00     0.092 A
ATOM     28  N   UNL     1      33.281   8.704  -2.565  1.00  0.00    -0.252 NA
ATOM     29  C   UNL     1      32.102   8.580  -3.226  1.00  0.00     0.140 A
BRANCH  27  30
ATOM     30  C   UNL     1      30.224   9.567  -4.517  1.00  0.00     0.040 A
ATOM     31  C   UNL     1      29.920   8.587  -5.439  1.00  0.00     0.119 A
ATOM     32  C   UNL     1      29.021  10.278  -4.343  1.00  0.00     0.145 A
ATOM     33  N   UNL     1      28.588   8.742  -5.726  1.00  0.00    -0.269 N
ATOM     34  N   UNL     1      28.044   9.822  -5.128  1.00  0.00    -0.181 NA
BRANCH  33  35
ATOM     35  C   UNL     1      27.763   7.846  -6.533  1.00  0.00     0.115 C
ATOM     36  C   UNL     1      26.272   7.875  -6.148  1.00  0.00     0.043 C
ATOM     37  C   UNL     1      28.317   6.397  -6.568  1.00  0.00     0.053 C
ATOM     38  C   UNL     1      25.460   6.919  -7.011  1.00  0.00     0.083 C
ATOM     39  C   UNL     1      27.384   5.523  -7.416  1.00  0.00     0.089 C
ATOM     40  N   UNL     1      26.001   5.564  -6.945  1.00  0.00    -0.316 NA
ATOM     41  H   UNL     1      25.428   4.946  -7.520  1.00  0.00     0.122 HD
ATOM     42  G   UNL     1      28.531   5.798  -5.163  1.00  0.00     0.000 C
ENDBRANCH  33  35
ENDBRANCH  27  30
ENDBRANCH   4  20
TORSDOF 0
ENDMDL
MODEL 6
REMARK VINA RESULT:     -10.3      1.502      2.784
REMARK SMILES Fc1cc2cc(F)c1CN1CCOC[C@@H]1COC[C@H]1CNCC[C@H]1n1cc(cn1)-c1cnc3cccc-2c3n1
REMARK SMILES IDX 1 1 2 2 3 3 4 4 5 5 6 6 7 7 8 8 9 9 10 10 11 11 15 12 12 13
REMARK SMILES IDX 14 14 13 15 16 16 17 17 18 18 37 20 36 21 38 22 35 23 39 24
REMARK SMILES IDX 33 25 34 26 30 27 32 28 31 29 27 30 26 31 28 32 25 33 29 34
REMARK SMILES IDX 24 35 23 36 19 37 22 38 20 39 21 40
REMARK H PARENT 21 41
REMARK Flexibility Score:   78.900
ROOT
ATOM      1  F   UNL     1      29.355  14.600  -3.866  1.00  0.00    -0.207 F
ATOM      2  C   UNL     1      30.688  14.745  -3.876  1.00  0.00     0.131 A
ATOM      3  C   UNL     1      31.462  13.780  -3.234  1.00  0.00     0.048 A
ATOM      4  C   UNL     1      32.860  13.856  -3.274  1.00  0.00    -0.010 A
ATOM      5  C   UNL     1      33.447  14.973  -3.888  1.00  0.00     0.048 A
ATOM      6  C   UNL     1      32.656  15.929  -4.523  1.00  0.00     0.131 A
ATOM      7  F   UNL     1      33.263  16.963  -5.122  1.00  0.00    -0.207 F
ATOM      8  C   UNL     1      31.269  15.804  -4.576  1.00  0.00     0.038 A
ENDROOT
BRANCH   8   9
ATOM      9  C   UNL     1      30.418  16.756  -5.370  1.00  0.00     0.126 C
BRANCH   9  10
ATOM     10  N   UNL     1      29.702  17.792  -4.580  1.00  0.00    -0.289 NA
ATOM     11  C   UNL     1      28.242  17.653  -4.846  1.00  0.00     0.114 C
ATOM     12  C   UNL     1      30.063  19.208  -4.898  1.00  0.00     0.108 C
ATOM     13  C   UNL     1      27.677  18.591  -5.937  1.00  0.00     0.175 C
ATOM     14  C   UNL     1      29.801  19.565  -6.383  1.00  0.00     0.181 C
ATOM     15  O   UNL     1      28.653  18.892  -6.937  1.00  0.00    -0.378 OA
BRANCH  12  16
ATOM     16  C   UNL     1      31.447  19.704  -4.421  1.00  0.00     0.181 C
BRANCH  16  17
ATOM     17  O   UNL     1      32.357  19.984  -5.492  1.00  0.00    -0.379 OA
BRANCH  17  18
ATOM     18  C   UNL     1      33.215  21.110  -5.269  1.00  0.00     0.167 C
ATOM     19  G   UNL     1      32.384  22.175  -4.524  1.00  0.00     0.000 C
ENDBRANCH  17  18
ENDBRANCH  16  17
ENDBRANCH  12  16
ENDBRANCH   9  10
ENDBRANCH   8   9
BRANCH   4  20
ATOM     20  C   UNL     1      33.680  12.718  -2.822  1.00  0.00     0.010 A
ATOM     21  C   UNL     1      34.907  12.931  -2.179  1.00  0.00     0.011 A
ATOM     22  C   UNL     1      33.189  11.407  -2.982  1.00  0.00     0.097 A
ATOM     23  C   UNL     1      35.639  11.850  -1.697  1.00  0.00     0.003 A
ATOM     24  N   UNL     1      32.012  11.201  -3.609  1.00  0.00    -0.244 NA
ATOM     25  C   UNL     1      33.923  10.312  -2.466  1.00  0.00     0.089 A
ATOM     26  C   UNL     1      35.139  10.556  -1.839  1.00  0.00     0.030 A
ATOM     27  C   UNL     1      31.554   9.938  -3.700  1.00  0.00     0.092 A
ATOM     28  N   UNL     1      33.463   9.044  -2.563  1.00  0.00    -0.252 NA
ATOM     29  C   UNL     1      32.266   8.877  -3.179  1.00  0.00     0.140 A
BRANCH  27  30
ATOM     30  C   UNL     1      30.308   9.796  -4.400  1.00  0.00     0.040 A
ATOM     31  C   UNL     1      29.876   8.662  -5.055  1.00  0.00     0.119 A
ATOM     32  C   UNL     1      29.192  10.656  -4.405  1.00  0.00     0.145 A
ATOM     33  N   UNL     1      28.561   8.887  -5.371  1.00  0.00    -0.269 N
ATOM     34  N   UNL     1      28.151  10.133  -5.056  1.00  0.00    -0.181 NA
BRANCH  33  35
ATOM     35  C   UNL     1      27.624   7.918  -5.935  1.00  0.00     0.115 C
ATOM     36  C   UNL     1      28.135   6.466  -5.869  1.00  0.00     0.043 C
ATOM     37  C   UNL     1      27.164   8.300  -7.366  1.00  0.00     0.053 C
ATOM     38  C   UNL     1      27.127   5.499  -6.477  1.00  0.00     0.083 C
ATOM     39  C   UNL     1      26.203   7.223  -7.887  1.00  0.00     0.089 C
ATOM     40  N   UNL     1      26.789   5.885  -7.845  1.00  0.00    -0.316 NA
ATOM     41  H   UNL     1      26.125   5.211  -8.229  1.00  0.00     0.122 HD
ATOM     42  G   UNL     1      28.339   8.528  -8.338  1.00  0.00     0.000 C
ENDBRANCH  33  35
ENDBRANCH  27  30
ENDBRANCH   4  20
TORSDOF 0
ENDMDL
MODEL 7
REMARK VINA RESULT:     -10.2      2.571      8.110
REMARK SMILES Fc1cc2cc(F)c1CN1CCOC[C@@H]1COC[C@H]1CNCC[C@H]1n1cc(cn1)-c1cnc3cccc-2c3n1
REMARK SMILES IDX 1 1 2 2 3 3 4 4 5 5 6 6 7 7 8 8 9 9 10 10 11 11 15 12 12 13
REMARK SMILES IDX 14 14 13 15 16 16 17 17 18 18 37 20 36 21 38 22 35 23 39 24
REMARK SMILES IDX 33 25 34 26 30 27 32 28 31 29 27 30 26 31 28 32 25 33 29 34
REMARK SMILES IDX 24 35 23 36 19 37 22 38 20 39 21 40
REMARK H PARENT 21 41
REMARK Flexibility Score:   78.900
ROOT
ATOM      1  F   UNL     1      30.556   6.541  -4.577  1.00  0.00    -0.207 F
ATOM      2  C   UNL     1      30.735   7.860  -4.413  1.00  0.00     0.131 A
ATOM      3  C   UNL     1      31.719   8.286  -3.524  1.00  0.00     0.048 A
ATOM      4  C   UNL     1      31.986   9.653  -3.369  1.00  0.00    -0.010 A
ATOM      5  C   UNL     1      31.174  10.570  -4.055  1.00  0.00     0.048 A
ATOM      6  C   UNL     1      30.193  10.123  -4.939  1.00  0.00     0.131 A
ATOM      7  F   UNL     1      29.462  11.036  -5.594  1.00  0.00    -0.207 F
ATOM      8  C   UNL     1      29.993   8.764  -5.175  1.00  0.00     0.038 A
ENDROOT
BRANCH   8   9
ATOM      9  C   UNL     1      29.031   8.276  -6.222  1.00  0.00     0.126 C
BRANCH   9  10
ATOM     10  N   UNL     1      27.599   8.592  -5.978  1.00  0.00    -0.289 NA
ATOM     11  C   UNL     1      27.007   7.482  -5.179  1.00  0.00     0.114 C
ATOM     12  C   UNL     1      26.754   8.736  -7.204  1.00  0.00     0.108 C
ATOM     13  C   UNL     1      26.269   6.397  -5.998  1.00  0.00     0.175 C
ATOM     14  C   UNL     1      26.752   7.454  -8.074  1.00  0.00     0.181 C
ATOM     15  O   UNL     1      26.835   6.240  -7.301  1.00  0.00    -0.378 OA
BRANCH  12  16
ATOM     16  C   UNL     1      26.960  10.010  -8.054  1.00  0.00     0.181 C
BRANCH  16  17
ATOM     17  O   UNL     1      27.016  11.214  -7.278  1.00  0.00    -0.379 OA
BRANCH  17  18
ATOM     18  C   UNL     1      26.553  12.387  -7.961  1.00  0.00     0.167 C
ATOM     19  G   UNL     1      26.997  13.605  -7.124  1.00  0.00     0.000 C
ENDBRANCH  17  18
ENDBRANCH  16  17
ENDBRANCH  12  16
ENDBRANCH   9  10
ENDBRANCH   8   9
BRANCH   4  20
ATOM     20  C   UNL     1      33.182  10.098  -2.632  1.00  0.00     0.010 A
ATOM     21  C   UNL     1      33.951   9.185  -1.897  1.00  0.00     0.011 A
ATOM     22  C   UNL     1      33.587  11.444  -2.724  1.00  0.00     0.097 A
ATOM     23  C   UNL     1      35.115   9.606  -1.262  1.00  0.00     0.003 A
ATOM     24  N   UNL     1      32.842  12.326  -3.422  1.00  0.00    -0.244 NA
ATOM     25  C   UNL     1      34.787  11.864  -2.098  1.00  0.00     0.089 A
ATOM     26  C   UNL     1      35.523  10.936  -1.373  1.00  0.00     0.030 A
ATOM     27  C   UNL     1      33.288  13.592  -3.526  1.00  0.00     0.092 A
ATOM     28  N   UNL     1      35.229  13.137  -2.200  1.00  0.00    -0.252 NA
ATOM     29  C   UNL     1      34.467  13.989  -2.929  1.00  0.00     0.140 A
BRANCH  27  30
ATOM     30  C   UNL     1      32.430  14.476  -4.265  1.00  0.00     0.040 A
ATOM     31  C   UNL     1      31.934  15.681  -3.814  1.00  0.00     0.119 A
ATOM     32  C   UNL     1      32.082  14.437  -5.629  1.00  0.00     0.145 A
ATOM     33  N   UNL     1      31.369  16.288  -4.906  1.00  0.00    -0.269 N
ATOM     34  N   UNL     1      31.377  15.506  -6.005  1.00  0.00    -0.181 NA
BRANCH  33  35
ATOM     35  C   UNL     1      30.848  17.652  -4.969  1.00  0.00     0.115 C
ATOM     36  C   UNL     1      30.071  17.948  -6.266  1.00  0.00     0.043 C
ATOM     37  C   UNL     1      31.940  18.719  -4.698  1.00  0.00     0.053 C
ATOM     38  C   UNL     1      29.558  19.382  -6.287  1.00  0.00     0.083 C
ATOM     39  C   UNL     1      31.313  20.116  -4.805  1.00  0.00     0.089 C
ATOM     40  N   UNL     1      30.649  20.333  -6.088  1.00  0.00    -0.316 NA
ATOM     41  H   UNL     1      30.276  21.283  -6.122  1.00  0.00     0.122 HD
ATOM     42  G   UNL     1      33.166  18.578  -5.623  1.00  0.00     0.000 C
ENDBRANCH  33  35
ENDBRANCH  27  30
ENDBRANCH   4  20
TORSDOF 0
ENDMDL
MODEL 8
REMARK VINA RESULT:     -10.2      3.092      8.277
REMARK SMILES Fc1cc2cc(F)c1CN1CCOC[C@@H]1COC[C@H]1CNCC[C@H]1n1cc(cn1)-c1cnc3cccc-2c3n1
REMARK SMILES IDX 1 1 2 2 3 3 4 4 5 5 6 6 7 7 8 8 9 9 10 10 11 11 15 12 12 13
REMARK SMILES IDX 14 14 13 15 16 16 17 17 18 18 37 20 36 21 38 22 35 23 39 24
REMARK SMILES IDX 33 25 34 26 30 27 32 28 31 29 27 30 26 31 28 32 25 33 29 34
REMARK SMILES IDX 24 35 23 36 19 37 22 38 20 39 21 40
REMARK H PARENT 21 41
REMARK Flexibility Score:   78.900
ROOT
ATOM      1  F   UNL     1      30.158   6.712  -5.171  1.00  0.00    -0.207 F
ATOM      2  C   UNL     1      30.410   7.982  -4.820  1.00  0.00     0.131 A
ATOM      3  C   UNL     1      31.400   8.219  -3.868  1.00  0.00     0.048 A
ATOM      4  C   UNL     1      31.742   9.532  -3.519  1.00  0.00    -0.010 A
ATOM      5  C   UNL     1      30.999  10.583  -4.077  1.00  0.00     0.048 A
ATOM      6  C   UNL     1      30.011  10.325  -5.026  1.00  0.00     0.131 A
ATOM      7  F   UNL     1      29.347  11.364  -5.554  1.00  0.00    -0.207 F
ATOM      8  C   UNL     1      29.737   9.028  -5.454  1.00  0.00     0.038 A
ENDROOT
BRANCH   8   9
ATOM      9  C   UNL     1      28.769   8.750  -6.571  1.00  0.00     0.126 C
BRANCH   9  10
ATOM     10  N   UNL     1      27.356   9.128  -6.307  1.00  0.00    -0.289 NA
ATOM     11  C   UNL     1      26.879   8.351  -5.127  1.00  0.00     0.114 C
ATOM     12  C   UNL     1      26.396   8.850  -7.420  1.00  0.00     0.108 C
ATOM     13  C   UNL     1      26.106   7.053  -5.459  1.00  0.00     0.175 C
ATOM     14  C   UNL     1      26.359   7.350  -7.806  1.00  0.00     0.181 C
ATOM     15  O   UNL     1      26.554   6.467  -6.684  1.00  0.00    -0.378 OA
BRANCH  12  16
ATOM     16  C   UNL     1      26.479   9.764  -8.663  1.00  0.00     0.181 C
BRANCH  16  17
ATOM     17  O   UNL     1      26.244   9.076  -9.899  1.00  0.00    -0.379 OA
BRANCH  17  18
ATOM     18  C   UNL     1      26.643   9.798 -11.070  1.00  0.00     0.167 C
ATOM     19  G   UNL     1      28.181   9.706 -11.159  1.00  0.00     0.000 C
ENDBRANCH  17  18
ENDBRANCH  16  17
ENDBRANCH  12  16
ENDBRANCH   9  10
ENDBRANCH   8   9
BRANCH   4  20
ATOM     20  C   UNL     1      32.947   9.797  -2.712  1.00  0.00     0.010 A
ATOM     21  C   UNL     1      33.574   8.764  -2.002  1.00  0.00     0.011 A
ATOM     22  C   UNL     1      33.507  11.090  -2.712  1.00  0.00     0.097 A
ATOM     23  C   UNL     1      34.749   9.013  -1.300  1.00  0.00     0.003 A
ATOM     24  N   UNL     1      32.898  12.087  -3.388  1.00  0.00    -0.244 NA
ATOM     25  C   UNL     1      34.717  11.333  -2.018  1.00  0.00     0.089 A
ATOM     26  C   UNL     1      35.310  10.290  -1.319  1.00  0.00     0.030 A
ATOM     27  C   UNL     1      33.490  13.296  -3.402  1.00  0.00     0.092 A
ATOM     28  N   UNL     1      35.306  12.550  -2.031  1.00  0.00    -0.252 NA
ATOM     29  C   UNL     1      34.679  13.522  -2.740  1.00  0.00     0.140 A
BRANCH  27  30
ATOM     30  C   UNL     1      32.772  14.311  -4.123  1.00  0.00     0.040 A
ATOM     31  C   UNL     1      32.754  15.656  -3.816  1.00  0.00     0.119 A
ATOM     32  C   UNL     1      32.126  14.222  -5.371  1.00  0.00     0.145 A
ATOM     33  N   UNL     1      32.151  16.275  -4.880  1.00  0.00    -0.269 N
ATOM     34  N   UNL     1      31.686  15.405  -5.800  1.00  0.00    -0.181 NA
BRANCH  33  35
ATOM     35  C   UNL     1      32.035  17.716  -5.096  1.00  0.00     0.115 C
ATOM     36  C   UNL     1      30.924  18.097  -6.091  1.00  0.00     0.043 C
ATOM     37  C   UNL     1      33.391  18.371  -5.471  1.00  0.00     0.053 C
ATOM     38  C   UNL     1      30.852  19.606  -6.288  1.00  0.00     0.083 C
ATOM     39  C   UNL     1      33.175  19.873  -5.699  1.00  0.00     0.089 C
ATOM     40  N   UNL     1      32.146  20.143  -6.701  1.00  0.00    -0.316 NA
ATOM     41  H   UNL     1      32.062  21.151  -6.838  1.00  0.00     0.122 HD
ATOM     42  G   UNL     1      34.067  17.706  -6.687  1.00  0.00     0.000 C
ENDBRANCH  33  35
ENDBRANCH  27  30
ENDBRANCH   4  20
TORSDOF 0
ENDMDL
MODEL 9
REMARK VINA RESULT:     -10.2      1.195      2.362
REMARK SMILES Fc1cc2cc(F)c1CN1CCOC[C@@H]1COC[C@H]1CNCC[C@H]1n1cc(cn1)-c1cnc3cccc-2c3n1
REMARK SMILES IDX 1 1 2 2 3 3 4 4 5 5 6 6 7 7 8 8 9 9 10 10 11 11 15 12 12 13
REMARK SMILES IDX 14 14 13 15 16 16 17 17 18 18 37 20 36 21 38 22 35 23 39 24
REMARK SMILES IDX 33 25 34 26 30 27 32 28 31 29 27 30 26 31 28 32 25 33 29 34
REMARK SMILES IDX 24 35 23 36 19 37 22 38 20 39 21 40
REMARK H PARENT 21 41
REMARK Flexibility Score:   78.900
ROOT
ATOM      1  F   UNL     1      30.436  15.722  -1.926  1.00  0.00    -0.207 F
ATOM      2  C   UNL     1      31.240  15.059  -2.770  1.00  0.00     0.131 A
ATOM      3  C   UNL     1      32.252  14.266  -2.231  1.00  0.00     0.048 A
ATOM      4  C   UNL     1      33.074  13.504  -3.072  1.00  0.00    -0.010 A
ATOM      5  C   UNL     1      32.912  13.639  -4.459  1.00  0.00     0.048 A
ATOM      6  C   UNL     1      31.895  14.439  -4.979  1.00  0.00     0.131 A
ATOM      7  F   UNL     1      31.760  14.513  -6.311  1.00  0.00    -0.207 F
ATOM      8  C   UNL     1      31.008  15.118  -4.146  1.00  0.00     0.038 A
ENDROOT
BRANCH   8   9
ATOM      9  C   UNL     1      29.830  15.874  -4.692  1.00  0.00     0.126 C
BRANCH   9  10
ATOM     10  N   UNL     1      29.954  17.355  -4.683  1.00  0.00    -0.289 NA
ATOM     11  C   UNL     1      28.646  17.930  -4.260  1.00  0.00     0.114 C
ATOM     12  C   UNL     1      30.293  17.982  -5.998  1.00  0.00     0.108 C
ATOM     13  C   UNL     1      27.711  18.363  -5.414  1.00  0.00     0.175 C
ATOM     14  C   UNL     1      29.244  17.662  -7.092  1.00  0.00     0.181 C
ATOM     15  O   UNL     1      27.900  17.560  -6.581  1.00  0.00    -0.378 OA
BRANCH  12  16
ATOM     16  C   UNL     1      31.739  17.796  -6.513  1.00  0.00     0.181 C
BRANCH  16  17
ATOM     17  O   UNL     1      32.451  19.028  -6.682  1.00  0.00    -0.379 OA
BRANCH  17  18
ATOM     18  C   UNL     1      32.473  19.870  -5.523  1.00  0.00     0.167 C
ATOM     19  G   UNL     1      32.015  21.273  -5.973  1.00  0.00     0.000 C
ENDBRANCH  17  18
ENDBRANCH  16  17
ENDBRANCH  12  16
ENDBRANCH   9  10
ENDBRANCH   8   9
BRANCH   4  20
ATOM     20  C   UNL     1      33.969  12.480  -2.506  1.00  0.00     0.010 A
ATOM     21  C   UNL     1      35.120  12.848  -1.796  1.00  0.00     0.011 A
ATOM     22  C   UNL     1      33.625  11.119  -2.628  1.00  0.00     0.097 A
ATOM     23  C   UNL     1      35.920  11.873  -1.209  1.00  0.00     0.003 A
ATOM     24  N   UNL     1      32.523  10.763  -3.320  1.00  0.00    -0.244 NA
ATOM     25  C   UNL     1      34.427  10.131  -2.007  1.00  0.00     0.089 A
ATOM     26  C   UNL     1      35.564  10.528  -1.315  1.00  0.00     0.030 A
ATOM     27  C   UNL     1      32.202   9.456  -3.373  1.00  0.00     0.092 A
ATOM     28  N   UNL     1      34.105   8.819  -2.066  1.00  0.00    -0.252 NA
ATOM     29  C   UNL     1      32.977   8.500  -2.750  1.00  0.00     0.140 A
BRANCH  27  30
ATOM     30  C   UNL     1      31.029   9.153  -4.146  1.00  0.00     0.040 A
ATOM     31  C   UNL     1      30.691   7.913  -4.644  1.00  0.00     0.119 A
ATOM     32  C   UNL     1      29.895   9.954  -4.386  1.00  0.00     0.145 A
ATOM     33  N   UNL     1      29.405   8.030  -5.104  1.00  0.00    -0.269 N
ATOM     34  N   UNL     1      28.933   9.292  -5.030  1.00  0.00    -0.181 NA
BRANCH  33  35
ATOM     35  C   UNL     1      28.550   6.945  -5.582  1.00  0.00     0.115 C
ATOM     36  C   UNL     1      29.226   5.563  -5.519  1.00  0.00     0.043 C
ATOM     37  C   UNL     1      27.958   7.231  -6.987  1.00  0.00     0.053 C
ATOM     38  C   UNL     1      28.299   4.471  -6.037  1.00  0.00     0.083 C
ATOM     39  C   UNL     1      27.096   6.038  -7.420  1.00  0.00     0.089 C
ATOM     40  N   UNL     1      27.832   4.776  -7.387  1.00  0.00    -0.316 NA
ATOM     41  H   UNL     1      27.226   4.021  -7.711  1.00  0.00     0.122 HD
ATOM     42  G   UNL     1      29.036   7.561  -8.041  1.00  0.00     0.000 C
ENDBRANCH  33  35
ENDBRANCH  27  30
ENDBRANCH   4  20
TORSDOF 0
ENDMDL
