MODEL 1
REMARK VINA RESULT:      -8.5      0.000      0.000
REMARK SMILES N#C[C@H]1CCN(C(=O)[C@@H]2NC(=O)c3c[nH]c4ncc(nc34)C3(CC3)COC[C@H]3C[C@H]32)C1
REMARK SMILES IDX 13 1 14 2 15 3 16 4 17 5 18 6 19 7 20 8 21 9 11 11 10 12
REMARK SMILES IDX 12 13 9 15 7 16 8 17 6 18 1 19 2 20 3 21 4 22 31 23 5 24
REMARK SMILES IDX 30 25 29 26 28 27 22 29 23 30 24 31 25 32 26 33 27 34
REMARK H PARENT 15 10 10 14
REMARK Flexibility Score:  106.900
ROOT
ATOM      1  C   UNL     1      32.564  14.717  -3.125  1.00  0.00     0.085 A
ATOM      2  C   UNL     1      33.558  15.683  -3.042  1.00  0.00     0.100 A
ATOM      3  N   UNL     1      34.756  15.056  -2.780  1.00  0.00    -0.344 N
ATOM      4  C   UNL     1      34.559  13.706  -2.699  1.00  0.00     0.156 A
ATOM      5  N   UNL     1      35.500  12.762  -2.509  1.00  0.00    -0.235 NA
ATOM      6  C   UNL     1      34.935  11.518  -2.508  1.00  0.00     0.138 A
ATOM      7  C   UNL     1      33.567  11.227  -2.644  1.00  0.00     0.068 A
ATOM      8  N   UNL     1      32.675  12.229  -2.821  1.00  0.00    -0.246 NA
ATOM      9  C   UNL     1      33.204  13.477  -2.866  1.00  0.00     0.120 A
ATOM     10  H   UNL     1      35.659  15.502  -2.691  1.00  0.00     0.168 HD
ENDROOT
BRANCH   1  11
ATOM     11  C   UNL     1      31.164  14.930  -3.466  1.00  0.00     0.255 C
ATOM     12  N   UNL     1      30.915  14.869  -4.814  1.00  0.00    -0.340 N
ATOM     13  O   UNL     1      30.300  15.183  -2.632  1.00  0.00    -0.269 OA
ATOM     14  H   UNL     1      31.694  14.635  -5.420  1.00  0.00     0.164 HD
BRANCH  12  15
ATOM     15  C   UNL     1      29.653  15.241  -5.410  1.00  0.00     0.175 C
BRANCH  15  16
ATOM     16  C   UNL     1      29.890  16.450  -6.360  1.00  0.00     0.245 C
ATOM     17  O   UNL     1      29.378  16.495  -7.484  1.00  0.00    -0.272 OA
BRANCH  16  18
ATOM     18  N   UNL     1      30.703  17.475  -5.917  1.00  0.00    -0.340 N
ATOM     19  N   UNL     1      34.508  20.160  -6.664  1.00  0.00    -0.198 NA
ATOM     20  C   UNL     1      33.724  19.468  -6.162  1.00  0.00     0.067 C
ATOM     21  C   UNL     1      32.733  18.603  -5.526  1.00  0.00     0.114 C
ATOM     22  C   UNL     1      31.593  19.386  -4.873  1.00  0.00     0.042 C
ATOM     23  C   UNL     1      31.994  17.730  -6.533  1.00  0.00     0.138 C
ATOM     24  C   UNL     1      30.478  18.354  -4.781  1.00  0.00     0.121 C
ENDBRANCH  16  18
ENDBRANCH  15  16
BRANCH  15  25
ATOM     25  C   UNL     1      28.992  14.102  -6.159  1.00  0.00     0.027 C
ATOM     26  C   UNL     1      27.576  13.648  -5.876  1.00  0.00     0.013 C
ATOM     27  C   UNL     1      28.721  12.683  -5.650  1.00  0.00     0.021 C
ATOM     28  G   UNL     1      29.030  12.159  -4.279  1.00  0.00     0.000 C
ENDBRANCH  15  25
ENDBRANCH  12  15
ENDBRANCH   1  11
BRANCH   7  29
ATOM     29  C   UNL     1      33.003   9.807  -2.622  1.00  0.00     0.038 C
ATOM     30  C   UNL     1      33.928   8.599  -2.498  1.00  0.00     0.017 C
ATOM     31  C   UNL     1      33.139   9.040  -1.308  1.00  0.00     0.017 C
BRANCH  29  32
ATOM     32  C   UNL     1      31.695   9.635  -3.391  1.00  0.00     0.173 C
BRANCH  32  33
ATOM     33  O   UNL     1      31.568   8.280  -3.836  1.00  0.00    -0.380 OA
BRANCH  33  34
ATOM     34  C   UNL     1      30.541   8.092  -4.808  1.00  0.00     0.164 C
ATOM     35  G   UNL     1      30.166   6.640  -4.808  1.00  0.00     0.000 C
ENDBRANCH  33  34
ENDBRANCH  32  33
ENDBRANCH  29  32
ENDBRANCH   7  29
TORSDOF 2
ENDMDL
MODEL 2
REMARK VINA RESULT:      -8.5      2.029      3.699
REMARK SMILES N#C[C@H]1CCN(C(=O)[C@@H]2NC(=O)c3c[nH]c4ncc(nc34)C3(CC3)COC[C@H]3C[C@H]32)C1
REMARK SMILES IDX 13 1 14 2 15 3 16 4 17 5 18 6 19 7 20 8 21 9 11 11 10 12
REMARK SMILES IDX 12 13 9 15 7 16 8 17 6 18 1 19 2 20 3 21 4 22 31 23 5 24
REMARK SMILES IDX 30 25 29 26 28 27 22 29 23 30 24 31 25 32 26 33 27 34
REMARK H PARENT 15 10 10 14
REMARK Flexibility Score:  106.900
ROOT
ATOM      1  C   UNL     1      34.782  11.912  -1.993  1.00  0.00     0.085 A
ATOM      2  C   UNL     1      35.782  11.316  -1.238  1.00  0.00     0.100 A
ATOM      3  N   UNL     1      35.529   9.963  -1.167  1.00  0.00    -0.344 N
ATOM      4  C   UNL     1      34.390   9.673  -1.865  1.00  0.00     0.156 A
ATOM      5  N   UNL     1      33.854   8.455  -2.067  1.00  0.00    -0.235 NA
ATOM      6  C   UNL     1      32.727   8.550  -2.833  1.00  0.00     0.138 A
ATOM      7  C   UNL     1      32.155   9.734  -3.326  1.00  0.00     0.068 A
ATOM      8  N   UNL     1      32.743  10.927  -3.074  1.00  0.00    -0.246 NA
ATOM      9  C   UNL     1      33.887  10.869  -2.348  1.00  0.00     0.120 A
ATOM     10  H   UNL     1      36.100   9.270  -0.704  1.00  0.00     0.168 HD
ENDROOT
BRANCH   1  11
ATOM     11  C   UNL     1      34.700  13.313  -2.387  1.00  0.00     0.255 C
ATOM     12  N   UNL     1      33.418  13.801  -2.405  1.00  0.00    -0.340 N
ATOM     13  O   UNL     1      35.679  13.977  -2.712  1.00  0.00    -0.269 OA
ATOM     14  H   UNL     1      32.679  13.176  -2.099  1.00  0.00     0.164 HD
BRANCH  12  15
ATOM     15  C   UNL     1      33.063  15.090  -2.949  1.00  0.00     0.175 C
BRANCH  15  16
ATOM     16  C   UNL     1      32.745  14.920  -4.462  1.00  0.00     0.245 C
ATOM     17  O   UNL     1      32.694  13.802  -4.987  1.00  0.00    -0.272 OA
BRANCH  16  18
ATOM     18  N   UNL     1      32.528  16.058  -5.212  1.00  0.00    -0.340 N
ATOM     19  N   UNL     1      34.257  20.102  -6.921  1.00  0.00    -0.198 NA
ATOM     20  C   UNL     1      33.567  19.323  -6.406  1.00  0.00     0.067 C
ATOM     21  C   UNL     1      32.695  18.342  -5.764  1.00  0.00     0.114 C
ATOM     22  C   UNL     1      31.745  17.659  -6.750  1.00  0.00     0.042 C
ATOM     23  C   UNL     1      33.472  17.164  -5.189  1.00  0.00     0.138 C
ATOM     24  C   UNL     1      31.364  16.376  -6.023  1.00  0.00     0.121 C
ENDBRANCH  16  18
ENDBRANCH  15  16
BRANCH  15  25
ATOM     25  C   UNL     1      31.894  15.735  -2.232  1.00  0.00     0.027 C
ATOM     26  C   UNL     1      31.200  15.089  -1.052  1.00  0.00     0.013 C
ATOM     27  C   UNL     1      30.415  15.347  -2.321  1.00  0.00     0.021 C
ATOM     28  G   UNL     1      29.843  14.213  -3.119  1.00  0.00     0.000 C
ENDBRANCH  15  25
ENDBRANCH  12  15
ENDBRANCH   1  11
BRANCH   7  29
ATOM     29  C   UNL     1      30.882   9.766  -4.171  1.00  0.00     0.038 C
ATOM     30  C   UNL     1      29.718  10.679  -3.799  1.00  0.00     0.017 C
ATOM     31  C   UNL     1      30.607  11.058  -4.939  1.00  0.00     0.017 C
BRANCH  29  32
ATOM     32  C   UNL     1      30.567   8.454  -4.888  1.00  0.00     0.173 C
BRANCH  32  33
ATOM     33  O   UNL     1      29.157   8.355  -5.120  1.00  0.00    -0.380 OA
BRANCH  33  34
ATOM     34  C   UNL     1      28.818   7.517  -6.223  1.00  0.00     0.164 C
ATOM     35  G   UNL     1      29.044   8.298  -7.483  1.00  0.00     0.000 C
ENDBRANCH  33  34
ENDBRANCH  32  33
ENDBRANCH  29  32
ENDBRANCH   7  29
TORSDOF 2
ENDMDL
MODEL 3
REMARK VINA RESULT:      -8.3      1.786      2.251
REMARK SMILES N#C[C@H]1CCN(C(=O)[C@@H]2NC(=O)c3c[nH]c4ncc(nc34)C3(CC3)COC[C@H]3C[C@H]32)C1
REMARK SMILES IDX 13 1 14 2 15 3 16 4 17 5 18 6 19 7 20 8 21 9 11 11 10 12
REMARK SMILES IDX 12 13 9 15 7 16 8 17 6 18 1 19 2 20 3 21 4 22 31 23 5 24
REMARK SMILES IDX 30 25 29 26 28 27 22 29 23 30 24 31 25 32 26 33 27 34
REMARK H PARENT 15 10 10 14
REMARK Flexibility Score:  106.900
ROOT
ATOM      1  C   UNL     1      33.243  14.599  -3.039  1.00  0.00     0.085 A
ATOM      2  C   UNL     1      34.508  15.046  -2.682  1.00  0.00     0.100 A
ATOM      3  N   UNL     1      35.309  13.950  -2.448  1.00  0.00    -0.344 N
ATOM      4  C   UNL     1      34.591  12.805  -2.653  1.00  0.00     0.156 A
ATOM      5  N   UNL     1      35.047  11.541  -2.574  1.00  0.00    -0.235 NA
ATOM      6  C   UNL     1      34.049  10.655  -2.867  1.00  0.00     0.138 A
ATOM      7  C   UNL     1      32.716  10.976  -3.173  1.00  0.00     0.068 A
ATOM      8  N   UNL     1      32.325  12.271  -3.224  1.00  0.00    -0.246 NA
ATOM      9  C   UNL     1      33.299  13.181  -2.977  1.00  0.00     0.120 A
ATOM     10  H   UNL     1      36.287  13.967  -2.196  1.00  0.00     0.168 HD
ENDROOT
BRANCH   1  11
ATOM     11  C   UNL     1      32.109  15.417  -3.449  1.00  0.00     0.255 C
ATOM     12  N   UNL     1      31.689  15.165  -4.731  1.00  0.00    -0.340 N
ATOM     13  O   UNL     1      31.607  16.278  -2.733  1.00  0.00    -0.269 OA
ATOM     14  H   UNL     1      32.158  14.419  -5.234  1.00  0.00     0.164 HD
BRANCH  12  15
ATOM     15  C   UNL     1      30.720  15.978  -5.428  1.00  0.00     0.175 C
BRANCH  15  16
ATOM     16  C   UNL     1      31.469  17.141  -6.138  1.00  0.00     0.245 C
ATOM     17  O   UNL     1      32.354  16.922  -6.973  1.00  0.00    -0.272 OA
BRANCH  16  18
ATOM     18  N   UNL     1      31.126  18.436  -5.803  1.00  0.00    -0.340 N
ATOM     19  N   UNL     1      28.108  22.026  -6.314  1.00  0.00    -0.198 NA
ATOM     20  C   UNL     1      29.084  21.401  -6.253  1.00  0.00     0.067 C
ATOM     21  C   UNL     1      30.315  20.616  -6.169  1.00  0.00     0.114 C
ATOM     22  C   UNL     1      30.860  20.520  -4.743  1.00  0.00     0.042 C
ATOM     23  C   UNL     1      30.094  19.153  -6.534  1.00  0.00     0.138 C
ATOM     24  C   UNL     1      31.748  19.285  -4.800  1.00  0.00     0.121 C
ENDBRANCH  16  18
ENDBRANCH  15  16
BRANCH  15  25
ATOM     25  C   UNL     1      29.895  15.193  -6.426  1.00  0.00     0.027 C
ATOM     26  C   UNL     1      28.457  15.538  -6.753  1.00  0.00     0.013 C
ATOM     27  C   UNL     1      28.771  14.194  -6.129  1.00  0.00     0.021 C
ATOM     28  G   UNL     1      28.245  13.831  -4.772  1.00  0.00     0.000 C
ENDBRANCH  15  25
ENDBRANCH  12  15
ENDBRANCH   1  11
BRANCH   7  29
ATOM     29  C   UNL     1      31.648   9.928  -3.482  1.00  0.00     0.038 C
ATOM     30  C   UNL     1      32.005   8.446  -3.561  1.00  0.00     0.017 C
ATOM     31  C   UNL     1      31.296   8.962  -2.351  1.00  0.00     0.017 C
BRANCH  29  32
ATOM     32  C   UNL     1      30.493  10.436  -4.342  1.00  0.00     0.173 C
BRANCH  32  33
ATOM     33  O   UNL     1      30.357   9.614  -5.506  1.00  0.00    -0.380 OA
BRANCH  33  34
ATOM     34  C   UNL     1      29.018   9.185  -5.748  1.00  0.00     0.164 C
ATOM     35  G   UNL     1      29.010   8.392  -7.021  1.00  0.00     0.000 C
ENDBRANCH  33  34
ENDBRANCH  32  33
ENDBRANCH  29  32
ENDBRANCH   7  29
TORSDOF 2
ENDMDL
MODEL 4
REMARK VINA RESULT:      -8.3      0.907      1.237
REMARK SMILES N#C[C@H]1CCN(C(=O)[C@@H]2NC(=O)c3c[nH]c4ncc(nc34)C3(CC3)COC[C@H]3C[C@H]32)C1
REMARK SMILES IDX 13 1 14 2 15 3 16 4 17 5 18 6 19 7 20 8 21 9 11 11 10 12
REMARK SMILES IDX 12 13 9 15 7 16 8 17 6 18 1 19 2 20 3 21 4 22 31 23 5 24
REMARK SMILES IDX 30 25 29 26 28 27 22 29 23 30 24 31 25 32 26 33 27 34
REMARK H PARENT 15 10 10 14
REMARK Flexibility Score:  106.900
ROOT
ATOM      1  C   UNL     1      32.963  14.776  -3.036  1.00  0.00     0.085 A
ATOM      2  C   UNL     1      34.107  15.553  -2.921  1.00  0.00     0.100 A
ATOM      3  N   UNL     1      35.182  14.719  -2.702  1.00  0.00    -0.344 N
ATOM      4  C   UNL     1      34.757  13.420  -2.679  1.00  0.00     0.156 A
ATOM      5  N   UNL     1      35.523  12.322  -2.543  1.00  0.00    -0.235 NA
ATOM      6  C   UNL     1      34.753  11.194  -2.590  1.00  0.00     0.138 A
ATOM      7  C   UNL     1      33.355  11.147  -2.723  1.00  0.00     0.068 A
ATOM      8  N   UNL     1      32.647  12.294  -2.844  1.00  0.00    -0.246 NA
ATOM      9  C   UNL     1      33.382  13.434  -2.840  1.00  0.00     0.120 A
ATOM     10  H   UNL     1      36.148  15.000  -2.603  1.00  0.00     0.168 HD
ENDROOT
BRANCH   1  11
ATOM     11  C   UNL     1      31.618  15.241  -3.350  1.00  0.00     0.255 C
ATOM     12  N   UNL     1      31.255  15.020  -4.655  1.00  0.00    -0.340 N
ATOM     13  O   UNL     1      30.898  15.813  -2.538  1.00  0.00    -0.269 OA
ATOM     14  H   UNL     1      31.916  14.521  -5.242  1.00  0.00     0.164 HD
BRANCH  12  15
ATOM     15  C   UNL     1      30.060  15.565  -5.253  1.00  0.00     0.175 C
BRANCH  15  16
ATOM     16  C   UNL     1      30.473  16.489  -6.435  1.00  0.00     0.245 C
ATOM     17  O   UNL     1      29.765  16.602  -7.441  1.00  0.00    -0.272 OA
BRANCH  16  18
ATOM     18  N   UNL     1      31.665  17.178  -6.334  1.00  0.00    -0.340 N
ATOM     19  N   UNL     1      33.900  21.116  -5.009  1.00  0.00    -0.198 NA
ATOM     20  C   UNL     1      33.536  20.205  -5.630  1.00  0.00     0.067 C
ATOM     21  C   UNL     1      33.084  19.056  -6.412  1.00  0.00     0.114 C
ATOM     22  C   UNL     1      33.927  17.804  -6.165  1.00  0.00     0.042 C
ATOM     23  C   UNL     1      31.689  18.595  -6.009  1.00  0.00     0.138 C
ATOM     24  C   UNL     1      33.002  16.678  -6.606  1.00  0.00     0.121 C
ENDBRANCH  16  18
ENDBRANCH  15  16
BRANCH  15  25
ATOM     25  C   UNL     1      29.095  14.498  -5.730  1.00  0.00     0.027 C
ATOM     26  C   UNL     1      27.687  14.366  -5.189  1.00  0.00     0.013 C
ATOM     27  C   UNL     1      28.666  13.229  -4.987  1.00  0.00     0.021 C
ATOM     28  G   UNL     1      29.099  12.818  -3.611  1.00  0.00     0.000 C
ENDBRANCH  15  25
ENDBRANCH  12  15
ENDBRANCH   1  11
BRANCH   7  29
ATOM     29  C   UNL     1      32.556   9.845  -2.758  1.00  0.00     0.038 C
ATOM     30  C   UNL     1      33.263   8.493  -2.739  1.00  0.00     0.017 C
ATOM     31  C   UNL     1      32.598   8.986  -1.495  1.00  0.00     0.017 C
BRANCH  29  32
ATOM     32  C   UNL     1      31.215   9.946  -3.483  1.00  0.00     0.173 C
BRANCH  32  33
ATOM     33  O   UNL     1      31.265   9.195  -4.701  1.00  0.00    -0.380 OA
BRANCH  33  34
ATOM     34  C   UNL     1      30.045   8.524  -5.008  1.00  0.00     0.164 C
ATOM     35  G   UNL     1      29.082   9.539  -5.547  1.00  0.00     0.000 C
ENDBRANCH  33  34
ENDBRANCH  32  33
ENDBRANCH  29  32
ENDBRANCH   7  29
TORSDOF 2
ENDMDL
MODEL 5
REMARK VINA RESULT:      -8.3      1.289      1.764
REMARK SMILES N#C[C@H]1CCN(C(=O)[C@@H]2NC(=O)c3c[nH]c4ncc(nc34)C3(CC3)COC[C@H]3C[C@H]32)C1
REMARK SMILES IDX 13 1 14 2 15 3 16 4 17 5 18 6 19 7 20 8 21 9 11 11 10 12
REMARK SMILES IDX 12 13 9 15 7 16 8 17 6 18 1 19 2 20 3 21 4 22 31 23 5 24
REMARK SMILES IDX 30 25 29 26 28 27 22 29 23 30 24 31 25 32 26 33 27 34
REMARK H PARENT 15 10 10 14
REMARK Flexibility Score:  106.900
ROOT
ATOM      1  C   UNL     1      32.370  14.659  -3.191  1.00  0.00     0.085 A
ATOM      2  C   UNL     1      33.314  15.673  -3.115  1.00  0.00     0.100 A
ATOM      3  N   UNL     1      34.535  15.112  -2.807  1.00  0.00    -0.344 N
ATOM      4  C   UNL     1      34.400  13.757  -2.689  1.00  0.00     0.156 A
ATOM      5  N   UNL     1      35.379  12.865  -2.450  1.00  0.00    -0.235 NA
ATOM      6  C   UNL     1      34.874  11.596  -2.423  1.00  0.00     0.138 A
ATOM      7  C   UNL     1      33.525  11.236  -2.581  1.00  0.00     0.068 A
ATOM      8  N   UNL     1      32.591  12.189  -2.808  1.00  0.00    -0.246 NA
ATOM      9  C   UNL     1      33.061  13.458  -2.880  1.00  0.00     0.120 A
ATOM     10  H   UNL     1      35.412  15.604  -2.711  1.00  0.00     0.168 HD
ENDROOT
BRANCH   1  11
ATOM     11  C   UNL     1      30.969  14.794  -3.569  1.00  0.00     0.255 C
ATOM     12  N   UNL     1      30.704  15.936  -4.282  1.00  0.00    -0.340 N
ATOM     13  O   UNL     1      30.104  13.987  -3.243  1.00  0.00    -0.269 OA
ATOM     14  H   UNL     1      31.493  16.529  -4.517  1.00  0.00     0.164 HD
BRANCH  12  15
ATOM     15  C   UNL     1      29.370  16.390  -4.595  1.00  0.00     0.175 C
BRANCH  15  16
ATOM     16  C   UNL     1      29.422  17.915  -4.897  1.00  0.00     0.245 C
ATOM     17  O   UNL     1      28.440  18.641  -4.709  1.00  0.00    -0.272 OA
BRANCH  16  18
ATOM     18  N   UNL     1      30.598  18.439  -5.394  1.00  0.00    -0.340 N
ATOM     19  N   UNL     1      34.150  21.495  -4.851  1.00  0.00    -0.198 NA
ATOM     20  C   UNL     1      33.273  20.888  -5.307  1.00  0.00     0.067 C
ATOM     21  C   UNL     1      32.173  20.120  -5.886  1.00  0.00     0.114 C
ATOM     22  C   UNL     1      32.635  18.804  -6.515  1.00  0.00     0.042 C
ATOM     23  C   UNL     1      31.179  19.647  -4.832  1.00  0.00     0.138 C
ATOM     24  C   UNL     1      31.360  17.971  -6.540  1.00  0.00     0.121 C
ENDBRANCH  16  18
ENDBRANCH  15  16
BRANCH  15  25
ATOM     25  C   UNL     1      28.747  15.642  -5.756  1.00  0.00     0.027 C
ATOM     26  C   UNL     1      27.613  16.210  -6.583  1.00  0.00     0.013 C
ATOM     27  C   UNL     1      27.386  14.939  -5.792  1.00  0.00     0.021 C
ATOM     28  G   UNL     1      26.383  14.891  -4.677  1.00  0.00     0.000 C
ENDBRANCH  15  25
ENDBRANCH  12  15
ENDBRANCH   1  11
BRANCH   7  29
ATOM     29  C   UNL     1      33.029   9.792  -2.529  1.00  0.00     0.038 C
ATOM     30  C   UNL     1      33.991   8.625  -2.731  1.00  0.00     0.017 C
ATOM     31  C   UNL     1      33.514   8.947  -1.352  1.00  0.00     0.017 C
BRANCH  29  32
ATOM     32  C   UNL     1      31.575   9.607  -2.960  1.00  0.00     0.173 C
BRANCH  32  33
ATOM     33  O   UNL     1      31.525   9.175  -4.324  1.00  0.00    -0.380 OA
BRANCH  33  34
ATOM     34  C   UNL     1      30.247   9.353  -4.932  1.00  0.00     0.164 C
ATOM     35  G   UNL     1      29.933  10.819  -4.927  1.00  0.00     0.000 C
ENDBRANCH  33  34
ENDBRANCH  32  33
ENDBRANCH  29  32
ENDBRANCH   7  29
TORSDOF 2
ENDMDL
MODEL 6
REMARK VINA RESULT:      -8.3      1.344      1.689
REMARK SMILES N#C[C@H]1CCN(C(=O)[C@@H]2NC(=O)c3c[nH]c4ncc(nc34)C3(CC3)COC[C@H]3C[C@H]32)C1
REMARK SMILES IDX 13 1 14 2 15 3 16 4 17 5 18 6 19 7 20 8 21 9 11 11 10 12
REMARK SMILES IDX 12 13 9 15 7 16 8 17 6 18 1 19 2 20 3 21 4 22 31 23 5 24
REMARK SMILES IDX 30 25 29 26 28 27 22 29 23 30 24 31 25 32 26 33 27 34
REMARK H PARENT 15 10 10 14
REMARK Flexibility Score:  106.900
ROOT
ATOM      1  C   UNL     1      32.150  14.685  -3.397  1.00  0.00     0.085 A
ATOM      2  C   UNL     1      33.046  15.740  -3.296  1.00  0.00     0.100 A
ATOM      3  N   UNL     1      34.278  15.235  -2.943  1.00  0.00    -0.344 N
ATOM      4  C   UNL     1      34.199  13.876  -2.820  1.00  0.00     0.156 A
ATOM      5  N   UNL     1      35.207  13.029  -2.541  1.00  0.00    -0.235 NA
ATOM      6  C   UNL     1      34.757  11.739  -2.523  1.00  0.00     0.138 A
ATOM      7  C   UNL     1      33.431  11.320  -2.723  1.00  0.00     0.068 A
ATOM      8  N   UNL     1      32.464  12.229  -2.989  1.00  0.00    -0.246 NA
ATOM      9  C   UNL     1      32.882  13.518  -3.054  1.00  0.00     0.120 A
ATOM     10  H   UNL     1      35.130  15.765  -2.821  1.00  0.00     0.168 HD
ENDROOT
BRANCH   1  11
ATOM     11  C   UNL     1      30.758  14.757  -3.823  1.00  0.00     0.255 C
ATOM     12  N   UNL     1      30.558  15.592  -4.894  1.00  0.00    -0.340 N
ATOM     13  O   UNL     1      29.849  14.163  -3.253  1.00  0.00    -0.269 OA
ATOM     14  H   UNL     1      31.379  16.022  -5.307  1.00  0.00     0.164 HD
BRANCH  12  15
ATOM     15  C   UNL     1      29.251  15.980  -5.369  1.00  0.00     0.175 C
BRANCH  15  16
ATOM     16  C   UNL     1      28.927  17.401  -4.825  1.00  0.00     0.245 C
ATOM     17  O   UNL     1      27.977  17.595  -4.059  1.00  0.00    -0.272 OA
BRANCH  16  18
ATOM     18  N   UNL     1      29.728  18.450  -5.230  1.00  0.00    -0.340 N
ATOM     19  N   UNL     1      34.038  20.364  -5.356  1.00  0.00    -0.198 NA
ATOM     20  C   UNL     1      32.895  20.220  -5.216  1.00  0.00     0.067 C
ATOM     21  C   UNL     1      31.454  20.042  -5.046  1.00  0.00     0.114 C
ATOM     22  C   UNL     1      30.669  20.304  -6.333  1.00  0.00     0.042 C
ATOM     23  C   UNL     1      31.084  18.599  -4.725  1.00  0.00     0.138 C
ATOM     24  C   UNL     1      29.361  19.562  -6.091  1.00  0.00     0.121 C
ENDBRANCH  16  18
ENDBRANCH  15  16
BRANCH  15  25
ATOM     25  C   UNL     1      29.137  15.954  -6.880  1.00  0.00     0.027 C
ATOM     26  C   UNL     1      27.940  16.511  -7.621  1.00  0.00     0.013 C
ATOM     27  C   UNL     1      28.259  15.035  -7.735  1.00  0.00     0.021 C
ATOM     28  G   UNL     1      27.303  13.998  -7.225  1.00  0.00     0.000 C
ENDBRANCH  15  25
ENDBRANCH  12  15
ENDBRANCH   1  11
BRANCH   7  29
ATOM     29  C   UNL     1      32.996   9.855  -2.678  1.00  0.00     0.038 C
ATOM     30  C   UNL     1      34.023   8.739  -2.515  1.00  0.00     0.017 C
ATOM     31  C   UNL     1      33.181   9.132  -1.345  1.00  0.00     0.017 C
BRANCH  29  32
ATOM     32  C   UNL     1      31.720   9.550  -3.460  1.00  0.00     0.173 C
BRANCH  32  33
ATOM     33  O   UNL     1      31.724   8.181  -3.878  1.00  0.00    -0.380 OA
BRANCH  33  34
ATOM     34  C   UNL     1      30.558   7.805  -4.610  1.00  0.00     0.164 C
ATOM     35  G   UNL     1      30.028   9.030  -5.295  1.00  0.00     0.000 C
ENDBRANCH  33  34
ENDBRANCH  32  33
ENDBRANCH  29  32
ENDBRANCH   7  29
TORSDOF 2
ENDMDL
MODEL 7
REMARK VINA RESULT:      -8.2      2.436      4.523
REMARK SMILES N#C[C@H]1CCN(C(=O)[C@@H]2NC(=O)c3c[nH]c4ncc(nc34)C3(CC3)COC[C@H]3C[C@H]32)C1
REMARK SMILES IDX 13 1 14 2 15 3 16 4 17 5 18 6 19 7 20 8 21 9 11 11 10 12
REMARK SMILES IDX 12 13 9 15 7 16 8 17 6 18 1 19 2 20 3 21 4 22 31 23 5 24
REMARK SMILES IDX 30 25 29 26 28 27 22 29 23 30 24 31 25 32 26 33 27 34
REMARK H PARENT 15 10 10 14
REMARK Flexibility Score:  106.900
ROOT
ATOM      1  C   UNL     1      28.615  10.409  -5.384  1.00  0.00     0.085 A
ATOM      2  C   UNL     1      27.780   9.433  -5.911  1.00  0.00     0.100 A
ATOM      3  N   UNL     1      28.341   8.199  -5.666  1.00  0.00    -0.344 N
ATOM      4  C   UNL     1      29.517   8.357  -4.986  1.00  0.00     0.156 A
ATOM      5  N   UNL     1      30.321   7.380  -4.525  1.00  0.00    -0.235 NA
ATOM      6  C   UNL     1      31.395   7.915  -3.873  1.00  0.00     0.138 A
ATOM      7  C   UNL     1      31.677   9.282  -3.718  1.00  0.00     0.068 A
ATOM      8  N   UNL     1      30.828  10.211  -4.218  1.00  0.00    -0.246 NA
ATOM      9  C   UNL     1      29.728   9.717  -4.839  1.00  0.00     0.120 A
ATOM     10  H   UNL     1      27.946   7.302  -5.912  1.00  0.00     0.168 HD
ENDROOT
BRANCH   1  11
ATOM     11  C   UNL     1      28.369  11.845  -5.349  1.00  0.00     0.255 C
ATOM     12  N   UNL     1      29.442  12.593  -5.764  1.00  0.00    -0.340 N
ATOM     13  O   UNL     1      27.320  12.337  -4.946  1.00  0.00    -0.269 OA
ATOM     14  H   UNL     1      30.257  12.089  -6.097  1.00  0.00     0.164 HD
BRANCH  12  15
ATOM     15  C   UNL     1      29.513  14.029  -5.631  1.00  0.00     0.175 C
BRANCH  15  16
ATOM     16  C   UNL     1      31.006  14.459  -5.683  1.00  0.00     0.245 C
ATOM     17  O   UNL     1      31.892  13.668  -6.025  1.00  0.00    -0.272 OA
BRANCH  16  18
ATOM     18  N   UNL     1      31.322  15.755  -5.325  1.00  0.00    -0.340 N
ATOM     19  N   UNL     1      33.206  19.896  -6.575  1.00  0.00    -0.198 NA
ATOM     20  C   UNL     1      32.952  18.927  -5.987  1.00  0.00     0.067 C
ATOM     21  C   UNL     1      32.629  17.712  -5.242  1.00  0.00     0.114 C
ATOM     22  C   UNL     1      31.416  17.884  -4.327  1.00  0.00     0.042 C
ATOM     23  C   UNL     1      32.192  16.573  -6.155  1.00  0.00     0.138 C
ATOM     24  C   UNL     1      30.951  16.451  -4.104  1.00  0.00     0.121 C
ENDBRANCH  16  18
ENDBRANCH  15  16
BRANCH  15  25
ATOM     25  C   UNL     1      28.714  14.763  -6.688  1.00  0.00     0.027 C
ATOM     26  C   UNL     1      28.745  16.269  -6.841  1.00  0.00     0.013 C
ATOM     27  C   UNL     1      27.439  15.589  -6.490  1.00  0.00     0.021 C
ATOM     28  G   UNL     1      26.753  15.861  -5.184  1.00  0.00     0.000 C
ENDBRANCH  15  25
ENDBRANCH  12  15
ENDBRANCH   1  11
BRANCH   7  29
ATOM     29  C   UNL     1      32.908   9.810  -2.982  1.00  0.00     0.038 C
ATOM     30  C   UNL     1      33.125   9.506  -1.503  1.00  0.00     0.017 C
ATOM     31  C   UNL     1      33.926   8.767  -2.525  1.00  0.00     0.017 C
BRANCH  29  32
ATOM     32  C   UNL     1      33.462  11.121  -3.536  1.00  0.00     0.173 C
BRANCH  32  33
ATOM     33  O   UNL     1      32.604  12.205  -3.163  1.00  0.00    -0.380 OA
BRANCH  33  34
ATOM     34  C   UNL     1      33.291  13.283  -2.528  1.00  0.00     0.164 C
ATOM     35  G   UNL     1      34.753  12.948  -2.504  1.00  0.00     0.000 C
ENDBRANCH  33  34
ENDBRANCH  32  33
ENDBRANCH  29  32
ENDBRANCH   7  29
TORSDOF 2
ENDMDL
MODEL 8
REMARK VINA RESULT:      -8.2      2.548      5.525
REMARK SMILES N#C[C@H]1CCN(C(=O)[C@@H]2NC(=O)c3c[nH]c4ncc(nc34)C3(CC3)COC[C@H]3C[C@H]32)C1
REMARK SMILES IDX 13 1 14 2 15 3 16 4 17 5 18 6 19 7 20 8 21 9 11 11 10 12
REMARK SMILES IDX 12 13 9 15 7 16 8 17 6 18 1 19 2 20 3 21 4 22 31 23 5 24
REMARK SMILES IDX 30 25 29 26 28 27 22 29 23 30 24 31 25 32 26 33 27 34
REMARK H PARENT 15 10 10 14
REMARK Flexibility Score:  106.900
ROOT
ATOM      1  C   UNL     1      29.743  10.703  -4.743  1.00  0.00     0.085 A
ATOM      2  C   UNL     1      30.283   9.424  -4.731  1.00  0.00     0.100 A
ATOM      3  N   UNL     1      31.563   9.495  -4.226  1.00  0.00    -0.344 N
ATOM      4  C   UNL     1      31.858  10.791  -3.905  1.00  0.00     0.156 A
ATOM      5  N   UNL     1      32.992  11.245  -3.338  1.00  0.00    -0.235 NA
ATOM      6  C   UNL     1      32.920  12.596  -3.143  1.00  0.00     0.138 A
ATOM      7  C   UNL     1      31.851  13.432  -3.504  1.00  0.00     0.068 A
ATOM      8  N   UNL     1      30.745  12.907  -4.082  1.00  0.00    -0.246 NA
ATOM      9  C   UNL     1      30.764  11.562  -4.256  1.00  0.00     0.120 A
ATOM     10  H   UNL     1      32.192   8.719  -4.076  1.00  0.00     0.168 HD
ENDROOT
BRANCH   1  11
ATOM     11  C   UNL     1      28.386  11.076  -5.123  1.00  0.00     0.255 C
ATOM     12  N   UNL     1      28.318  12.267  -5.801  1.00  0.00    -0.340 N
ATOM     13  O   UNL     1      27.399  10.411  -4.826  1.00  0.00    -0.269 OA
ATOM     14  H   UNL     1      29.195  12.730  -6.014  1.00  0.00     0.164 HD
BRANCH  12  15
ATOM     15  C   UNL     1      27.078  12.941  -6.106  1.00  0.00     0.175 C
BRANCH  15  16
ATOM     16  C   UNL     1      27.021  14.266  -5.293  1.00  0.00     0.245 C
ATOM     17  O   UNL     1      26.346  14.360  -4.262  1.00  0.00    -0.272 OA
BRANCH  16  18
ATOM     18  N   UNL     1      27.740  15.347  -5.762  1.00  0.00    -0.340 N
ATOM     19  N   UNL     1      28.075  20.032  -6.204  1.00  0.00    -0.198 NA
ATOM     20  C   UNL     1      28.065  18.896  -6.441  1.00  0.00     0.067 C
ATOM     21  C   UNL     1      28.059  17.465  -6.741  1.00  0.00     0.114 C
ATOM     22  C   UNL     1      29.422  16.808  -6.519  1.00  0.00     0.042 C
ATOM     23  C   UNL     1      27.159  16.680  -5.794  1.00  0.00     0.138 C
ATOM     24  C   UNL     1      29.069  15.337  -6.352  1.00  0.00     0.121 C
ENDBRANCH  16  18
ENDBRANCH  15  16
BRANCH  15  25
ATOM     25  C   UNL     1      26.902  13.220  -7.584  1.00  0.00     0.027 C
ATOM     26  C   UNL     1      25.549  13.209  -8.265  1.00  0.00     0.013 C
ATOM     27  C   UNL     1      26.602  12.209  -8.696  1.00  0.00     0.021 C
ATOM     28  G   UNL     1      26.385  10.735  -8.519  1.00  0.00     0.000 C
ENDBRANCH  15  25
ENDBRANCH  12  15
ENDBRANCH   1  11
BRANCH   7  29
ATOM     29  C   UNL     1      31.844  14.941  -3.264  1.00  0.00     0.038 C
ATOM     30  C   UNL     1      30.533  15.696  -3.070  1.00  0.00     0.017 C
ATOM     31  C   UNL     1      31.391  15.408  -1.881  1.00  0.00     0.017 C
BRANCH  29  32
ATOM     32  C   UNL     1      33.018  15.687  -3.896  1.00  0.00     0.173 C
BRANCH  32  33
ATOM     33  O   UNL     1      32.653  16.147  -5.201  1.00  0.00    -0.380 OA
BRANCH  33  34
ATOM     34  C   UNL     1      33.249  17.395  -5.553  1.00  0.00     0.164 C
ATOM     35  G   UNL     1      32.334  18.490  -5.092  1.00  0.00     0.000 C
ENDBRANCH  33  34
ENDBRANCH  32  33
ENDBRANCH  29  32
ENDBRANCH   7  29
TORSDOF 2
ENDMDL
MODEL 9
REMARK VINA RESULT:      -8.2      0.913      1.218
REMARK SMILES N#C[C@H]1CCN(C(=O)[C@@H]2NC(=O)c3c[nH]c4ncc(nc34)C3(CC3)COC[C@H]3C[C@H]32)C1
REMARK SMILES IDX 13 1 14 2 15 3 16 4 17 5 18 6 19 7 20 8 21 9 11 11 10 12
REMARK SMILES IDX 12 13 9 15 7 16 8 17 6 18 1 19 2 20 3 21 4 22 31 23 5 24
REMARK SMILES IDX 30 25 29 26 28 27 22 29 23 30 24 31 25 32 26 33 27 34
REMARK H PARENT 15 10 10 14
REMARK Flexibility Score:  106.900
ROOT
ATOM      1  C   UNL     1      32.561  14.723  -3.109  1.00  0.00     0.085 A
ATOM      2  C   UNL     1      33.712  15.487  -2.970  1.00  0.00     0.100 A
ATOM      3  N   UNL     1      34.780  14.638  -2.780  1.00  0.00    -0.344 N
ATOM      4  C   UNL     1      34.345  13.342  -2.800  1.00  0.00     0.156 A
ATOM      5  N   UNL     1      35.102  12.234  -2.701  1.00  0.00    -0.235 NA
ATOM      6  C   UNL     1      34.324  11.114  -2.786  1.00  0.00     0.138 A
ATOM      7  C   UNL     1      32.926  11.083  -2.918  1.00  0.00     0.068 A
ATOM      8  N   UNL     1      32.226  12.239  -3.000  1.00  0.00    -0.246 NA
ATOM      9  C   UNL     1      32.970  13.372  -2.959  1.00  0.00     0.120 A
ATOM     10  H   UNL     1      35.748  14.908  -2.673  1.00  0.00     0.168 HD
ENDROOT
BRANCH   1  11
ATOM     11  C   UNL     1      31.219  15.209  -3.406  1.00  0.00     0.255 C
ATOM     12  N   UNL     1      30.768  14.840  -4.648  1.00  0.00    -0.340 N
ATOM     13  O   UNL     1      30.575  15.914  -2.637  1.00  0.00    -0.269 OA
ATOM     14  H   UNL     1      31.371  14.238  -5.201  1.00  0.00     0.164 HD
BRANCH  12  15
ATOM     15  C   UNL     1      29.561  15.361  -5.246  1.00  0.00     0.175 C
BRANCH  15  16
ATOM     16  C   UNL     1      29.954  16.416  -6.319  1.00  0.00     0.245 C
ATOM     17  O   UNL     1      29.642  16.274  -7.506  1.00  0.00    -0.272 OA
BRANCH  16  18
ATOM     18  N   UNL     1      30.676  17.520  -5.910  1.00  0.00    -0.340 N
ATOM     19  N   UNL     1      34.474  20.252  -6.508  1.00  0.00    -0.198 NA
ATOM     20  C   UNL     1      33.650  19.594  -6.025  1.00  0.00     0.067 C
ATOM     21  C   UNL     1      32.608  18.771  -5.413  1.00  0.00     0.114 C
ATOM     22  C   UNL     1      31.374  19.580  -5.011  1.00  0.00     0.042 C
ATOM     23  C   UNL     1      32.029  17.753  -6.388  1.00  0.00     0.138 C
ATOM     24  C   UNL     1      30.283  18.521  -4.931  1.00  0.00     0.121 C
ENDBRANCH  16  18
ENDBRANCH  15  16
BRANCH  15  25
ATOM     25  C   UNL     1      28.690  14.283  -5.859  1.00  0.00     0.027 C
ATOM     26  C   UNL     1      27.621  14.581  -6.888  1.00  0.00     0.013 C
ATOM     27  C   UNL     1      27.218  13.988  -5.554  1.00  0.00     0.021 C
ATOM     28  G   UNL     1      26.339  14.747  -4.605  1.00  0.00     0.000 C
ENDBRANCH  15  25
ENDBRANCH  12  15
ENDBRANCH   1  11
BRANCH   7  29
ATOM     29  C   UNL     1      32.117   9.789  -2.996  1.00  0.00     0.038 C
ATOM     30  C   UNL     1      32.813   8.431  -3.017  1.00  0.00     0.017 C
ATOM     31  C   UNL     1      32.148   8.891  -1.760  1.00  0.00     0.017 C
BRANCH  29  32
ATOM     32  C   UNL     1      30.779   9.922  -3.721  1.00  0.00     0.173 C
BRANCH  32  33
ATOM     33  O   UNL     1      30.829   9.213  -4.964  1.00  0.00    -0.380 OA
BRANCH  33  34
ATOM     34  C   UNL     1      29.555   9.071  -5.591  1.00  0.00     0.164 C
ATOM     35  G   UNL     1      28.714  10.250  -5.198  1.00  0.00     0.000 C
ENDBRANCH  33  34
ENDBRANCH  32  33
ENDBRANCH  29  32
ENDBRANCH   7  29
TORSDOF 2
ENDMDL
