MODEL 1
REMARK VINA RESULT:      -8.2      0.000      0.000
REMARK SMILES N#CC1CN(C(=O)[C@@H]2NC(=O)c3c[nH]c4ncc(nc34)C3(CC3)CSC[C@@H]3C[C@H]32)C1
REMARK SMILES IDX 12 1 13 2 14 3 15 4 16 5 17 6 18 7 19 8 20 9 10 11 9 12
REMARK SMILES IDX 11 13 8 15 6 16 1 17 2 18 3 19 4 20 30 21 5 22 7 23 29 24
REMARK SMILES IDX 28 25 27 26 21 28 22 29 23 30 24 31 25 32 26 33
REMARK H PARENT 14 10 9 14
REMARK Flexibility Score:   64.900
ROOT
ATOM      1  C   UNL     1      33.983  13.234  -3.001  1.00  0.00     0.085 A
ATOM      2  C   UNL     1      35.142  12.973  -2.282  1.00  0.00     0.100 A
ATOM      3  N   UNL     1      35.210  11.618  -2.042  1.00  0.00    -0.344 N
ATOM      4  C   UNL     1      34.120  11.000  -2.588  1.00  0.00     0.156 A
ATOM      5  N   UNL     1      33.812   9.692  -2.527  1.00  0.00    -0.235 NA
ATOM      6  C   UNL     1      32.616   9.452  -3.144  1.00  0.00     0.138 A
ATOM      7  C   UNL     1      31.808  10.399  -3.800  1.00  0.00     0.067 A
ATOM      8  N   UNL     1      32.217  11.690  -3.873  1.00  0.00    -0.246 NA
ATOM      9  C   UNL     1      33.366  11.976  -3.215  1.00  0.00     0.120 A
ATOM     10  H   UNL     1      35.930  11.137  -1.521  1.00  0.00     0.168 HD
ENDROOT
BRANCH   1  11
ATOM     11  C   UNL     1      33.486  14.536  -3.424  1.00  0.00     0.255 C
ATOM     12  N   UNL     1      32.625  14.470  -4.492  1.00  0.00    -0.340 N
ATOM     13  O   UNL     1      33.812  15.586  -2.883  1.00  0.00    -0.269 OA
ATOM     14  H   UNL     1      32.375  13.546  -4.836  1.00  0.00     0.164 HD
BRANCH  12  15
ATOM     15  C   UNL     1      31.892  15.609  -4.997  1.00  0.00     0.175 C
BRANCH  15  16
ATOM     16  C   UNL     1      32.623  16.449  -6.079  1.00  0.00     0.245 C
ATOM     17  N   UNL     1      34.176  21.669  -4.801  1.00  0.00    -0.198 NA
ATOM     18  C   UNL     1      33.513  20.868  -5.314  1.00  0.00     0.069 C
ATOM     19  C   UNL     1      32.681  19.866  -5.936  1.00  0.00     0.131 C
ATOM     20  C   UNL     1      33.427  18.772  -6.711  1.00  0.00     0.140 C
ATOM     21  C   UNL     1      32.160  18.771  -4.990  1.00  0.00     0.140 C
ATOM     22  N   UNL     1      32.646  17.811  -5.953  1.00  0.00    -0.338 N
ATOM     23  O   UNL     1      33.318  15.896  -6.939  1.00  0.00    -0.272 OA
ENDBRANCH  15  16
BRANCH  15  24
ATOM     24  C   UNL     1      30.576  15.086  -5.544  1.00  0.00     0.025 C
ATOM     25  C   UNL     1      29.622  16.021  -6.241  1.00  0.00     0.011 C
ATOM     26  C   UNL     1      29.257  15.458  -4.887  1.00  0.00     0.005 C
ATOM     27  G   UNL     1      28.112  14.496  -4.795  1.00  0.00     0.000 C
ENDBRANCH  15  24
ENDBRANCH  12  15
ENDBRANCH   1  11
BRANCH   7  28
ATOM     28  C   UNL     1      30.451  10.072  -4.463  1.00  0.00     0.023 C
ATOM     29  C   UNL     1      29.692  11.113  -5.274  1.00  0.00     0.015 C
ATOM     30  C   UNL     1      29.222  10.771  -3.892  1.00  0.00     0.015 C
BRANCH  28  31
ATOM     31  C   UNL     1      30.273   8.610  -4.880  1.00  0.00     0.083 C
BRANCH  31  32
ATOM     32  S   UNL     1      29.355   8.500  -6.448  1.00  0.00    -0.161 SA
BRANCH  32  33
ATOM     33  C   UNL     1      27.825   7.729  -5.853  1.00  0.00     0.073 C
ATOM     34  G   UNL     1      28.045   6.274  -5.574  1.00  0.00     0.000 C
ENDBRANCH  32  33
ENDBRANCH  31  32
ENDBRANCH  28  31
ENDBRANCH   7  28
TORSDOF 1
ENDMDL
MODEL 2
REMARK VINA RESULT:      -8.1      1.030      1.178
REMARK SMILES N#CC1CN(C(=O)[C@@H]2NC(=O)c3c[nH]c4ncc(nc34)C3(CC3)CSC[C@@H]3C[C@H]32)C1
REMARK SMILES IDX 12 1 13 2 14 3 15 4 16 5 17 6 18 7 19 8 20 9 10 11 9 12
REMARK SMILES IDX 11 13 8 15 6 16 1 17 2 18 3 19 4 20 30 21 5 22 7 23 29 24
REMARK SMILES IDX 28 25 27 26 21 28 22 29 23 30 24 31 25 32 26 33
REMARK H PARENT 14 10 9 14
REMARK Flexibility Score:   64.900
ROOT
ATOM      1  C   UNL     1      34.336  12.674  -2.590  1.00  0.00     0.085 A
ATOM      2  C   UNL     1      35.392  12.289  -1.774  1.00  0.00     0.100 A
ATOM      3  N   UNL     1      35.288  10.936  -1.534  1.00  0.00    -0.344 N
ATOM      4  C   UNL     1      34.187  10.440  -2.175  1.00  0.00     0.156 A
ATOM      5  N   UNL     1      33.732   9.175  -2.146  1.00  0.00    -0.235 NA
ATOM      6  C   UNL     1      32.574   9.066  -2.865  1.00  0.00     0.138 A
ATOM      7  C   UNL     1      31.937  10.093  -3.585  1.00  0.00     0.067 A
ATOM      8  N   UNL     1      32.491  11.330  -3.618  1.00  0.00    -0.246 NA
ATOM      9  C   UNL     1      33.604  11.491  -2.862  1.00  0.00     0.120 A
ATOM     10  H   UNL     1      35.902  10.381  -0.955  1.00  0.00     0.168 HD
ENDROOT
BRANCH   1  11
ATOM     11  C   UNL     1      34.025  14.020  -3.049  1.00  0.00     0.255 C
ATOM     12  N   UNL     1      32.756  14.142  -3.560  1.00  0.00    -0.340 N
ATOM     13  O   UNL     1      34.822  14.949  -2.992  1.00  0.00    -0.269 OA
ATOM     14  H   UNL     1      32.152  13.326  -3.514  1.00  0.00     0.164 HD
BRANCH  12  15
ATOM     15  C   UNL     1      32.169  15.407  -3.942  1.00  0.00     0.175 C
BRANCH  15  16
ATOM     16  C   UNL     1      32.361  15.811  -5.429  1.00  0.00     0.245 C
ATOM     17  N   UNL     1      34.703  20.763  -6.562  1.00  0.00    -0.198 NA
ATOM     18  C   UNL     1      33.821  20.016  -6.474  1.00  0.00     0.069 C
ATOM     19  C   UNL     1      32.724  19.086  -6.346  1.00  0.00     0.131 C
ATOM     20  C   UNL     1      32.936  17.716  -7.004  1.00  0.00     0.140 C
ATOM     21  C   UNL     1      32.634  18.366  -4.990  1.00  0.00     0.140 C
ATOM     22  N   UNL     1      32.539  17.132  -5.736  1.00  0.00    -0.338 N
ATOM     23  O   UNL     1      32.527  14.946  -6.298  1.00  0.00    -0.272 OA
ENDBRANCH  15  16
BRANCH  15  24
ATOM     24  C   UNL     1      30.689  15.330  -3.610  1.00  0.00     0.025 C
ATOM     25  C   UNL     1      30.133  14.116  -2.913  1.00  0.00     0.011 C
ATOM     26  C   UNL     1      29.773  14.375  -4.357  1.00  0.00     0.005 C
ATOM     27  G   UNL     1      28.355  14.727  -4.691  1.00  0.00     0.000 C
ENDBRANCH  15  24
ENDBRANCH  12  15
ENDBRANCH   1  11
BRANCH   7  28
ATOM     28  C   UNL     1      30.614   9.915  -4.364  1.00  0.00     0.023 C
ATOM     29  C   UNL     1      30.021  11.046  -5.192  1.00  0.00     0.015 C
ATOM     30  C   UNL     1      29.411  10.707  -3.865  1.00  0.00     0.015 C
BRANCH  28  31
ATOM     31  C   UNL     1      30.339   8.490  -4.850  1.00  0.00     0.083 C
BRANCH  31  32
ATOM     32  S   UNL     1      29.397   8.516  -6.407  1.00  0.00    -0.161 SA
BRANCH  32  33
ATOM     33  C   UNL     1      28.729   6.830  -6.390  1.00  0.00     0.073 C
ATOM     34  G   UNL     1      27.347   6.819  -5.810  1.00  0.00     0.000 C
ENDBRANCH  32  33
ENDBRANCH  31  32
ENDBRANCH  28  31
ENDBRANCH   7  28
TORSDOF 1
ENDMDL
MODEL 3
REMARK VINA RESULT:      -7.9      2.178      4.268
REMARK SMILES N#CC1CN(C(=O)[C@@H]2NC(=O)c3c[nH]c4ncc(nc34)C3(CC3)CSC[C@@H]3C[C@H]32)C1
REMARK SMILES IDX 12 1 13 2 14 3 15 4 16 5 17 6 18 7 19 8 20 9 10 11 9 12
REMARK SMILES IDX 11 13 8 15 6 16 1 17 2 18 3 19 4 20 30 21 5 22 7 23 29 24
REMARK SMILES IDX 28 25 27 26 21 28 22 29 23 30 24 31 25 32 26 33
REMARK H PARENT 14 10 9 14
REMARK Flexibility Score:   64.900
ROOT
ATOM      1  C   UNL     1      33.377  14.582  -3.439  1.00  0.00     0.085 A
ATOM      2  C   UNL     1      34.514  15.185  -2.919  1.00  0.00     0.100 A
ATOM      3  N   UNL     1      35.309  14.208  -2.360  1.00  0.00    -0.344 N
ATOM      4  C   UNL     1      34.709  12.989  -2.507  1.00  0.00     0.156 A
ATOM      5  N   UNL     1      35.158  11.804  -2.056  1.00  0.00    -0.235 NA
ATOM      6  C   UNL     1      34.263  10.811  -2.347  1.00  0.00     0.138 A
ATOM      7  C   UNL     1      33.054  10.955  -3.051  1.00  0.00     0.067 A
ATOM      8  N   UNL     1      32.699  12.173  -3.528  1.00  0.00    -0.246 NA
ATOM      9  C   UNL     1      33.531  13.193  -3.202  1.00  0.00     0.120 A
ATOM     10  H   UNL     1      36.190  14.351  -1.885  1.00  0.00     0.168 HD
ENDROOT
BRANCH   1  11
ATOM     11  C   UNL     1      32.245  15.242  -4.074  1.00  0.00     0.255 C
ATOM     12  N   UNL     1      32.611  16.117  -5.068  1.00  0.00    -0.340 N
ATOM     13  O   UNL     1      31.081  15.040  -3.747  1.00  0.00    -0.269 OA
ATOM     14  H   UNL     1      33.599  16.173  -5.302  1.00  0.00     0.164 HD
BRANCH  12  15
ATOM     15  C   UNL     1      31.663  16.777  -5.936  1.00  0.00     0.175 C
BRANCH  15  16
ATOM     16  C   UNL     1      30.487  17.494  -5.221  1.00  0.00     0.245 C
ATOM     17  N   UNL     1      25.673  14.718  -4.573  1.00  0.00    -0.198 NA
ATOM     18  C   UNL     1      26.372  15.508  -5.056  1.00  0.00     0.069 C
ATOM     19  C   UNL     1      27.251  16.476  -5.665  1.00  0.00     0.131 C
ATOM     20  C   UNL     1      28.007  17.391  -4.692  1.00  0.00     0.140 C
ATOM     21  C   UNL     1      28.612  15.925  -6.124  1.00  0.00     0.140 C
ATOM     22  N   UNL     1      29.216  17.023  -5.405  1.00  0.00    -0.338 N
ATOM     23  O   UNL     1      30.707  18.360  -4.365  1.00  0.00    -0.272 OA
ENDBRANCH  15  16
BRANCH  15  24
ATOM     24  C   UNL     1      32.445  17.772  -6.776  1.00  0.00     0.025 C
ATOM     25  C   UNL     1      33.836  17.433  -7.249  1.00  0.00     0.011 C
ATOM     26  C   UNL     1      33.647  18.502  -6.198  1.00  0.00     0.005 C
ATOM     27  G   UNL     1      33.964  19.923  -6.554  1.00  0.00     0.000 C
ENDBRANCH  15  24
ENDBRANCH  12  15
ENDBRANCH   1  11
BRANCH   7  28
ATOM     28  C   UNL     1      32.069   9.798  -3.331  1.00  0.00     0.023 C
ATOM     29  C   UNL     1      31.471   8.972  -2.200  1.00  0.00     0.015 C
ATOM     30  C   UNL     1      32.567   8.386  -3.040  1.00  0.00     0.015 C
BRANCH  28  31
ATOM     31  C   UNL     1      31.208   9.973  -4.584  1.00  0.00     0.083 C
BRANCH  31  32
ATOM     32  S   UNL     1      29.555  10.596  -4.143  1.00  0.00    -0.161 SA
BRANCH  32  33
ATOM     33  C   UNL     1      28.538   9.572  -5.241  1.00  0.00     0.073 C
ATOM     34  G   UNL     1      29.406   8.719  -6.115  1.00  0.00     0.000 C
ENDBRANCH  32  33
ENDBRANCH  31  32
ENDBRANCH  28  31
ENDBRANCH   7  28
TORSDOF 1
ENDMDL
MODEL 4
REMARK VINA RESULT:      -7.6      1.325      1.700
REMARK SMILES N#CC1CN(C(=O)[C@@H]2NC(=O)c3c[nH]c4ncc(nc34)C3(CC3)CSC[C@@H]3C[C@H]32)C1
REMARK SMILES IDX 12 1 13 2 14 3 15 4 16 5 17 6 18 7 19 8 20 9 10 11 9 12
REMARK SMILES IDX 11 13 8 15 6 16 1 17 2 18 3 19 4 20 30 21 5 22 7 23 29 24
REMARK SMILES IDX 28 25 27 26 21 28 22 29 23 30 24 31 25 32 26 33
REMARK H PARENT 14 10 9 14
REMARK Flexibility Score:   64.900
ROOT
ATOM      1  C   UNL     1      33.533  11.607  -2.953  1.00  0.00     0.085 A
ATOM      2  C   UNL     1      34.511  11.011  -2.167  1.00  0.00     0.100 A
ATOM      3  N   UNL     1      34.232   9.665  -2.069  1.00  0.00    -0.344 N
ATOM      4  C   UNL     1      33.095   9.381  -2.772  1.00  0.00     0.156 A
ATOM      5  N   UNL     1      32.484   8.187  -2.881  1.00  0.00    -0.235 NA
ATOM      6  C   UNL     1      31.342   8.299  -3.624  1.00  0.00     0.138 A
ATOM      7  C   UNL     1      30.858   9.465  -4.242  1.00  0.00     0.067 A
ATOM      8  N   UNL     1      31.563  10.619  -4.140  1.00  0.00    -0.246 NA
ATOM      9  C   UNL     1      32.667  10.560  -3.355  1.00  0.00     0.120 A
ATOM     10  H   UNL     1      34.756   8.981  -1.541  1.00  0.00     0.168 HD
ENDROOT
BRANCH   1  11
ATOM     11  C   UNL     1      33.406  13.021  -3.275  1.00  0.00     0.255 C
ATOM     12  N   UNL     1      32.151  13.370  -3.711  1.00  0.00    -0.340 N
ATOM     13  O   UNL     1      34.331  13.818  -3.173  1.00  0.00    -0.269 OA
ATOM     14  H   UNL     1      31.436  12.646  -3.709  1.00  0.00     0.164 HD
BRANCH  12  15
ATOM     15  C   UNL     1      31.741  14.735  -3.951  1.00  0.00     0.175 C
BRANCH  15  16
ATOM     16  C   UNL     1      32.037  15.282  -5.373  1.00  0.00     0.245 C
ATOM     17  N   UNL     1      34.082  20.467  -5.861  1.00  0.00    -0.198 NA
ATOM     18  C   UNL     1      33.256  19.655  -5.922  1.00  0.00     0.069 C
ATOM     19  C   UNL     1      32.228  18.644  -5.979  1.00  0.00     0.131 C
ATOM     20  C   UNL     1      32.605  17.356  -6.722  1.00  0.00     0.140 C
ATOM     21  C   UNL     1      32.070  17.801  -4.702  1.00  0.00     0.140 C
ATOM     22  N   UNL     1      32.139  16.635  -5.552  1.00  0.00    -0.338 N
ATOM     23  O   UNL     1      32.348  14.513  -6.290  1.00  0.00    -0.272 OA
ENDBRANCH  15  16
BRANCH  15  24
ATOM     24  C   UNL     1      30.252  14.811  -3.663  1.00  0.00     0.025 C
ATOM     25  C   UNL     1      29.482  13.560  -3.329  1.00  0.00     0.011 C
ATOM     26  C   UNL     1      29.239  14.253  -4.649  1.00  0.00     0.005 C
ATOM     27  G   UNL     1      27.911  14.905  -4.884  1.00  0.00     0.000 C
ENDBRANCH  15  24
ENDBRANCH  12  15
ENDBRANCH   1  11
BRANCH   7  28
ATOM     28  C   UNL     1      29.545   9.537  -5.054  1.00  0.00     0.023 C
ATOM     29  C   UNL     1      29.148  10.794  -5.815  1.00  0.00     0.015 C
ATOM     30  C   UNL     1      28.459  10.466  -4.524  1.00  0.00     0.015 C
BRANCH  28  31
ATOM     31  C   UNL     1      29.075   8.202  -5.638  1.00  0.00     0.083 C
BRANCH  31  32
ATOM     32  S   UNL     1      29.082   8.262  -7.457  1.00  0.00    -0.161 SA
BRANCH  32  33
ATOM     33  C   UNL     1      27.354   7.820  -7.786  1.00  0.00     0.073 C
ATOM     34  G   UNL     1      26.536   7.939  -6.536  1.00  0.00     0.000 C
ENDBRANCH  32  33
ENDBRANCH  31  32
ENDBRANCH  28  31
ENDBRANCH   7  28
TORSDOF 1
ENDMDL
MODEL 5
REMARK VINA RESULT:      -7.6      2.196      4.447
REMARK SMILES N#CC1CN(C(=O)[C@@H]2NC(=O)c3c[nH]c4ncc(nc34)C3(CC3)CSC[C@@H]3C[C@H]32)C1
REMARK SMILES IDX 12 1 13 2 14 3 15 4 16 5 17 6 18 7 19 8 20 9 10 11 9 12
REMARK SMILES IDX 11 13 8 15 6 16 1 17 2 18 3 19 4 20 30 21 5 22 7 23 29 24
REMARK SMILES IDX 28 25 27 26 21 28 22 29 23 30 24 31 25 32 26 33
REMARK H PARENT 14 10 9 14
REMARK Flexibility Score:   64.900
ROOT
ATOM      1  C   UNL     1      33.502  14.695  -3.393  1.00  0.00     0.085 A
ATOM      2  C   UNL     1      34.657  15.245  -2.853  1.00  0.00     0.100 A
ATOM      3  N   UNL     1      35.424  14.226  -2.331  1.00  0.00    -0.344 N
ATOM      4  C   UNL     1      34.788  13.031  -2.520  1.00  0.00     0.156 A
ATOM      5  N   UNL     1      35.202  11.818  -2.113  1.00  0.00    -0.235 NA
ATOM      6  C   UNL     1      34.278  10.863  -2.438  1.00  0.00     0.138 A
ATOM      7  C   UNL     1      33.073  11.067  -3.133  1.00  0.00     0.067 A
ATOM      8  N   UNL     1      32.754  12.312  -3.566  1.00  0.00    -0.246 NA
ATOM      9  C   UNL     1      33.615  13.294  -3.206  1.00  0.00     0.120 A
ATOM     10  H   UNL     1      36.308  14.326  -1.853  1.00  0.00     0.168 HD
ENDROOT
BRANCH   1  11
ATOM     11  C   UNL     1      32.389  15.409  -4.001  1.00  0.00     0.255 C
ATOM     12  N   UNL     1      32.756  16.168  -5.086  1.00  0.00    -0.340 N
ATOM     13  O   UNL     1      31.240  15.345  -3.580  1.00  0.00    -0.269 OA
ATOM     14  H   UNL     1      33.725  16.113  -5.390  1.00  0.00     0.164 HD
BRANCH  12  15
ATOM     15  C   UNL     1      31.809  16.849  -5.939  1.00  0.00     0.175 C
BRANCH  15  16
ATOM     16  C   UNL     1      30.633  17.550  -5.208  1.00  0.00     0.245 C
ATOM     17  N   UNL     1      25.871  14.706  -4.479  1.00  0.00    -0.198 NA
ATOM     18  C   UNL     1      26.551  15.504  -4.975  1.00  0.00     0.069 C
ATOM     19  C   UNL     1      27.407  16.484  -5.600  1.00  0.00     0.131 C
ATOM     20  C   UNL     1      28.163  17.412  -4.641  1.00  0.00     0.140 C
ATOM     21  C   UNL     1      28.768  15.951  -6.078  1.00  0.00     0.140 C
ATOM     22  N   UNL     1      29.367  17.060  -5.371  1.00  0.00    -0.338 N
ATOM     23  O   UNL     1      30.853  18.422  -4.358  1.00  0.00    -0.272 OA
ENDBRANCH  15  16
BRANCH  15  24
ATOM     24  C   UNL     1      32.592  17.861  -6.756  1.00  0.00     0.025 C
ATOM     25  C   UNL     1      34.026  17.585  -7.128  1.00  0.00     0.011 C
ATOM     26  C   UNL     1      33.713  18.670  -6.125  1.00  0.00     0.005 C
ATOM     27  G   UNL     1      33.979  20.096  -6.503  1.00  0.00     0.000 C
ENDBRANCH  15  24
ENDBRANCH  12  15
ENDBRANCH   1  11
BRANCH   7  28
ATOM     28  C   UNL     1      32.055   9.950  -3.452  1.00  0.00     0.023 C
ATOM     29  C   UNL     1      31.421   9.113  -2.350  1.00  0.00     0.015 C
ATOM     30  C   UNL     1      32.505   8.516  -3.197  1.00  0.00     0.015 C
BRANCH  28  31
ATOM     31  C   UNL     1      31.210  10.187  -4.707  1.00  0.00     0.083 C
BRANCH  31  32
ATOM     32  S   UNL     1      29.456  10.393  -4.268  1.00  0.00    -0.161 SA
BRANCH  32  33
ATOM     33  C   UNL     1      29.173  12.065  -4.912  1.00  0.00     0.073 C
ATOM     34  G   UNL     1      29.216  13.069  -3.800  1.00  0.00     0.000 C
ENDBRANCH  32  33
ENDBRANCH  31  32
ENDBRANCH  28  31
ENDBRANCH   7  28
TORSDOF 1
ENDMDL
MODEL 6
REMARK VINA RESULT:      -7.5      1.577      2.372
REMARK SMILES N#CC1CN(C(=O)[C@@H]2NC(=O)c3c[nH]c4ncc(nc34)C3(CC3)CSC[C@@H]3C[C@H]32)C1
REMARK SMILES IDX 12 1 13 2 14 3 15 4 16 5 17 6 18 7 19 8 20 9 10 11 9 12
REMARK SMILES IDX 11 13 8 15 6 16 1 17 2 18 3 19 4 20 30 21 5 22 7 23 29 24
REMARK SMILES IDX 28 25 27 26 21 28 22 29 23 30 24 31 25 32 26 33
REMARK H PARENT 14 10 9 14
REMARK Flexibility Score:   64.900
ROOT
ATOM      1  C   UNL     1      33.686  11.727  -2.857  1.00  0.00     0.085 A
ATOM      2  C   UNL     1      34.593  11.104  -2.010  1.00  0.00     0.100 A
ATOM      3  N   UNL     1      34.257   9.772  -1.913  1.00  0.00    -0.344 N
ATOM      4  C   UNL     1      33.151   9.522  -2.676  1.00  0.00     0.156 A
ATOM      5  N   UNL     1      32.501   8.351  -2.805  1.00  0.00    -0.235 NA
ATOM      6  C   UNL     1      31.407   8.497  -3.613  1.00  0.00     0.138 A
ATOM      7  C   UNL     1      31.004   9.673  -4.271  1.00  0.00     0.067 A
ATOM      8  N   UNL     1      31.748  10.799  -4.142  1.00  0.00    -0.246 NA
ATOM      9  C   UNL     1      32.802  10.709  -3.296  1.00  0.00     0.120 A
ATOM     10  H   UNL     1      34.723   9.075  -1.349  1.00  0.00     0.168 HD
ENDROOT
BRANCH   1  11
ATOM     11  C   UNL     1      33.633  13.141  -3.202  1.00  0.00     0.255 C
ATOM     12  N   UNL     1      32.424  13.528  -3.728  1.00  0.00    -0.340 N
ATOM     13  O   UNL     1      34.576  13.905  -3.044  1.00  0.00    -0.269 OA
ATOM     14  H   UNL     1      31.685  12.830  -3.769  1.00  0.00     0.164 HD
BRANCH  12  15
ATOM     15  C   UNL     1      32.082  14.903  -4.010  1.00  0.00     0.175 C
BRANCH  15  16
ATOM     16  C   UNL     1      32.306  15.362  -5.476  1.00  0.00     0.245 C
ATOM     17  N   UNL     1      34.491  20.432  -6.379  1.00  0.00    -0.198 NA
ATOM     18  C   UNL     1      33.636  19.649  -6.343  1.00  0.00     0.069 C
ATOM     19  C   UNL     1      32.572  18.676  -6.281  1.00  0.00     0.131 C
ATOM     20  C   UNL     1      32.858  17.336  -6.972  1.00  0.00     0.140 C
ATOM     21  C   UNL     1      32.466  17.910  -4.952  1.00  0.00     0.140 C
ATOM     22  N   UNL     1      32.442  16.698  -5.737  1.00  0.00    -0.338 N
ATOM     23  O   UNL     1      32.533  14.532  -6.366  1.00  0.00    -0.272 OA
ENDBRANCH  15  16
BRANCH  15  24
ATOM     24  C   UNL     1      30.625  15.089  -3.624  1.00  0.00     0.025 C
ATOM     25  C   UNL     1      29.758  13.888  -3.345  1.00  0.00     0.011 C
ATOM     26  C   UNL     1      29.511  14.713  -4.587  1.00  0.00     0.005 C
ATOM     27  G   UNL     1      28.240  15.501  -4.684  1.00  0.00     0.000 C
ENDBRANCH  15  24
ENDBRANCH  12  15
ENDBRANCH   1  11
BRANCH   7  28
ATOM     28  C   UNL     1      29.743   9.784  -5.156  1.00  0.00     0.023 C
ATOM     29  C   UNL     1      28.635   8.741  -5.096  1.00  0.00     0.015 C
ATOM     30  C   UNL     1      29.583   8.742  -6.258  1.00  0.00     0.015 C
BRANCH  28  31
ATOM     31  C   UNL     1      29.323  11.214  -5.504  1.00  0.00     0.083 C
BRANCH  31  32
ATOM     32  S   UNL     1      27.522  11.412  -5.331  1.00  0.00    -0.161 SA
BRANCH  32  33
ATOM     33  C   UNL     1      27.100  11.883  -7.030  1.00  0.00     0.073 C
ATOM     34  G   UNL     1      26.577  13.287  -7.071  1.00  0.00     0.000 C
ENDBRANCH  32  33
ENDBRANCH  31  32
ENDBRANCH  28  31
ENDBRANCH   7  28
TORSDOF 1
ENDMDL
MODEL 7
REMARK VINA RESULT:      -7.5      1.858      3.616
REMARK SMILES N#CC1CN(C(=O)[C@@H]2NC(=O)c3c[nH]c4ncc(nc34)C3(CC3)CSC[C@@H]3C[C@H]32)C1
REMARK SMILES IDX 12 1 13 2 14 3 15 4 16 5 17 6 18 7 19 8 20 9 10 11 9 12
REMARK SMILES IDX 11 13 8 15 6 16 1 17 2 18 3 19 4 20 30 21 5 22 7 23 29 24
REMARK SMILES IDX 28 25 27 26 21 28 22 29 23 30 24 31 25 32 26 33
REMARK H PARENT 14 10 9 14
REMARK Flexibility Score:   64.900
ROOT
ATOM      1  C   UNL     1      33.845  13.159  -3.069  1.00  0.00     0.085 A
ATOM      2  C   UNL     1      34.986  12.916  -2.316  1.00  0.00     0.100 A
ATOM      3  N   UNL     1      35.048  11.567  -2.041  1.00  0.00    -0.344 N
ATOM      4  C   UNL     1      33.971  10.936  -2.598  1.00  0.00     0.156 A
ATOM      5  N   UNL     1      33.662   9.629  -2.513  1.00  0.00    -0.235 NA
ATOM      6  C   UNL     1      32.481   9.374  -3.154  1.00  0.00     0.138 A
ATOM      7  C   UNL     1      31.690  10.304  -3.851  1.00  0.00     0.067 A
ATOM      8  N   UNL     1      32.100  11.593  -3.946  1.00  0.00    -0.246 NA
ATOM      9  C   UNL     1      33.233  11.896  -3.267  1.00  0.00     0.120 A
ATOM     10  H   UNL     1      35.755  11.099  -1.491  1.00  0.00     0.168 HD
ENDROOT
BRANCH   1  11
ATOM     11  C   UNL     1      33.358  14.450  -3.535  1.00  0.00     0.255 C
ATOM     12  N   UNL     1      32.581  14.364  -4.665  1.00  0.00    -0.340 N
ATOM     13  O   UNL     1      33.623  15.508  -2.977  1.00  0.00    -0.269 OA
ATOM     14  H   UNL     1      32.374  13.434  -5.021  1.00  0.00     0.164 HD
BRANCH  12  15
ATOM     15  C   UNL     1      31.868  15.487  -5.229  1.00  0.00     0.175 C
BRANCH  15  16
ATOM     16  C   UNL     1      30.541  15.863  -4.518  1.00  0.00     0.245 C
ATOM     17  N   UNL     1      25.789  15.658  -7.464  1.00  0.00    -0.198 NA
ATOM     18  C   UNL     1      26.675  16.190  -6.938  1.00  0.00     0.069 C
ATOM     19  C   UNL     1      27.789  16.847  -6.296  1.00  0.00     0.131 C
ATOM     20  C   UNL     1      28.084  16.400  -4.858  1.00  0.00     0.140 C
ATOM     21  C   UNL     1      29.177  16.315  -6.692  1.00  0.00     0.140 C
ATOM     22  N   UNL     1      29.460  16.214  -5.280  1.00  0.00    -0.338 N
ATOM     23  O   UNL     1      30.406  15.680  -3.302  1.00  0.00    -0.272 OA
ENDBRANCH  15  16
BRANCH  15  24
ATOM     24  C   UNL     1      32.819  16.671  -5.215  1.00  0.00     0.025 C
ATOM     25  C   UNL     1      32.284  18.072  -5.362  1.00  0.00     0.011 C
ATOM     26  C   UNL     1      33.093  17.464  -6.484  1.00  0.00     0.005 C
ATOM     27  G   UNL     1      34.443  18.039  -6.789  1.00  0.00     0.000 C
ENDBRANCH  15  24
ENDBRANCH  12  15
ENDBRANCH   1  11
BRANCH   7  28
ATOM     28  C   UNL     1      30.349   9.961  -4.539  1.00  0.00     0.023 C
ATOM     29  C   UNL     1      29.590  10.993  -5.360  1.00  0.00     0.015 C
ATOM     30  C   UNL     1      29.100  10.639  -3.987  1.00  0.00     0.015 C
BRANCH  28  31
ATOM     31  C   UNL     1      30.199   8.498  -4.965  1.00  0.00     0.083 C
BRANCH  31  32
ATOM     32  S   UNL     1      29.296   8.380  -6.540  1.00  0.00    -0.161 SA
BRANCH  32  33
ATOM     33  C   UNL     1      28.919   6.606  -6.546  1.00  0.00     0.073 C
ATOM     34  G   UNL     1      29.337   5.977  -5.252  1.00  0.00     0.000 C
ENDBRANCH  32  33
ENDBRANCH  31  32
ENDBRANCH  28  31
ENDBRANCH   7  28
TORSDOF 1
ENDMDL
MODEL 8
REMARK VINA RESULT:      -7.5      1.357      2.233
REMARK SMILES N#CC1CN(C(=O)[C@@H]2NC(=O)c3c[nH]c4ncc(nc34)C3(CC3)CSC[C@@H]3C[C@H]32)C1
REMARK SMILES IDX 12 1 13 2 14 3 15 4 16 5 17 6 18 7 19 8 20 9 10 11 9 12
REMARK SMILES IDX 11 13 8 15 6 16 1 17 2 18 3 19 4 20 30 21 5 22 7 23 29 24
REMARK SMILES IDX 28 25 27 26 21 28 22 29 23 30 24 31 25 32 26 33
REMARK H PARENT 14 10 9 14
REMARK Flexibility Score:   64.900
ROOT
ATOM      1  C   UNL     1      33.540  13.259  -3.124  1.00  0.00     0.085 A
ATOM      2  C   UNL     1      34.598  12.771  -2.368  1.00  0.00     0.100 A
ATOM      3  N   UNL     1      34.459  11.405  -2.252  1.00  0.00    -0.344 N
ATOM      4  C   UNL     1      33.333  11.001  -2.915  1.00  0.00     0.156 A
ATOM      5  N   UNL     1      32.842   9.752  -2.995  1.00  0.00    -0.235 NA
ATOM      6  C   UNL     1      31.671   9.742  -3.700  1.00  0.00     0.138 A
ATOM      7  C   UNL     1      31.051  10.849  -4.309  1.00  0.00     0.067 A
ATOM      8  N   UNL     1      31.641  12.067  -4.237  1.00  0.00    -0.246 NA
ATOM      9  C   UNL     1      32.770  12.127  -3.490  1.00  0.00     0.120 A
ATOM     10  H   UNL     1      35.066  10.782  -1.739  1.00  0.00     0.168 HD
ENDROOT
BRANCH   1  11
ATOM     11  C   UNL     1      33.262  14.650  -3.450  1.00  0.00     0.255 C
ATOM     12  N   UNL     1      32.335  14.799  -4.454  1.00  0.00    -0.340 N
ATOM     13  O   UNL     1      33.807  15.593  -2.888  1.00  0.00    -0.269 OA
ATOM     14  H   UNL     1      31.900  13.956  -4.819  1.00  0.00     0.164 HD
BRANCH  12  15
ATOM     15  C   UNL     1      31.790  16.077  -4.851  1.00  0.00     0.175 C
BRANCH  15  16
ATOM     16  C   UNL     1      32.579  16.827  -5.957  1.00  0.00     0.245 C
ATOM     17  N   UNL     1      34.444  21.988  -4.870  1.00  0.00    -0.198 NA
ATOM     18  C   UNL     1      33.736  21.209  -5.358  1.00  0.00     0.069 C
ATOM     19  C   UNL     1      32.848  20.237  -5.948  1.00  0.00     0.131 C
ATOM     20  C   UNL     1      33.531  19.069  -6.672  1.00  0.00     0.140 C
ATOM     21  C   UNL     1      32.253  19.215  -4.965  1.00  0.00     0.140 C
ATOM     22  N   UNL     1      32.686  18.189  -5.885  1.00  0.00    -0.338 N
ATOM     23  O   UNL     1      33.246  16.198  -6.789  1.00  0.00    -0.272 OA
ENDBRANCH  15  16
BRANCH  15  24
ATOM     24  C   UNL     1      30.362  15.831  -5.305  1.00  0.00     0.025 C
ATOM     25  C   UNL     1      29.848  16.478  -6.565  1.00  0.00     0.011 C
ATOM     26  C   UNL     1      29.319  16.935  -5.226  1.00  0.00     0.005 C
ATOM     27  G   UNL     1      27.887  16.655  -4.887  1.00  0.00     0.000 C
ENDBRANCH  15  24
ENDBRANCH  12  15
ENDBRANCH   1  11
BRANCH   7  28
ATOM     28  C   UNL     1      29.712  10.781  -5.076  1.00  0.00     0.023 C
ATOM     29  C   UNL     1      28.656   9.737  -4.740  1.00  0.00     0.015 C
ATOM     30  C   UNL     1      29.494   9.566  -5.972  1.00  0.00     0.015 C
BRANCH  28  31
ATOM     31  C   UNL     1      29.207  12.123  -5.611  1.00  0.00     0.083 C
BRANCH  31  32
ATOM     32  S   UNL     1      27.419  12.297  -5.318  1.00  0.00    -0.161 SA
BRANCH  32  33
ATOM     33  C   UNL     1      27.005  13.474  -6.634  1.00  0.00     0.073 C
ATOM     34  G   UNL     1      25.567  13.884  -6.537  1.00  0.00     0.000 C
ENDBRANCH  32  33
ENDBRANCH  31  32
ENDBRANCH  28  31
ENDBRANCH   7  28
TORSDOF 1
ENDMDL
MODEL 9
REMARK VINA RESULT:      -7.4      1.522      2.005
REMARK SMILES N#CC1CN(C(=O)[C@@H]2NC(=O)c3c[nH]c4ncc(nc34)C3(CC3)CSC[C@@H]3C[C@H]32)C1
REMARK SMILES IDX 12 1 13 2 14 3 15 4 16 5 17 6 18 7 19 8 20 9 10 11 9 12
REMARK SMILES IDX 11 13 8 15 6 16 1 17 2 18 3 19 4 20 30 21 5 22 7 23 29 24
REMARK SMILES IDX 28 25 27 26 21 28 22 29 23 30 24 31 25 32 26 33
REMARK H PARENT 14 10 9 14
REMARK Flexibility Score:   64.900
ROOT
ATOM      1  C   UNL     1      33.062  14.539  -2.964  1.00  0.00     0.085 A
ATOM      2  C   UNL     1      34.300  15.038  -2.580  1.00  0.00     0.100 A
ATOM      3  N   UNL     1      35.173  13.981  -2.441  1.00  0.00    -0.344 N
ATOM      4  C   UNL     1      34.525  12.811  -2.726  1.00  0.00     0.156 A
ATOM      5  N   UNL     1      35.030  11.567  -2.663  1.00  0.00    -0.235 NA
ATOM      6  C   UNL     1      34.069  10.643  -2.968  1.00  0.00     0.138 A
ATOM      7  C   UNL     1      32.740  10.911  -3.342  1.00  0.00     0.067 A
ATOM      8  N   UNL     1      32.321  12.197  -3.444  1.00  0.00    -0.246 NA
ATOM      9  C   UNL     1      33.229  13.137  -3.085  1.00  0.00     0.120 A
ATOM     10  H   UNL     1      36.138  14.035  -2.149  1.00  0.00     0.168 HD
ENDROOT
BRANCH   1  11
ATOM     11  C   UNL     1      31.836  15.296  -3.173  1.00  0.00     0.255 C
ATOM     12  N   UNL     1      31.447  15.351  -4.489  1.00  0.00    -0.340 N
ATOM     13  O   UNL     1      31.218  15.836  -2.263  1.00  0.00    -0.269 OA
ATOM     14  H   UNL     1      31.997  14.824  -5.163  1.00  0.00     0.164 HD
BRANCH  12  15
ATOM     15  C   UNL     1      30.191  15.918  -4.926  1.00  0.00     0.175 C
BRANCH  15  16
ATOM     16  C   UNL     1      30.301  17.068  -5.963  1.00  0.00     0.245 C
ATOM     17  N   UNL     1      34.022  21.142  -5.038  1.00  0.00    -0.198 NA
ATOM     18  C   UNL     1      32.958  20.682  -5.080  1.00  0.00     0.069 C
ATOM     19  C   UNL     1      31.637  20.101  -5.117  1.00  0.00     0.131 C
ATOM     20  C   UNL     1      31.271  19.369  -6.414  1.00  0.00     0.140 C
ATOM     21  C   UNL     1      31.495  18.759  -4.379  1.00  0.00     0.140 C
ATOM     22  N   UNL     1      30.877  18.248  -5.581  1.00  0.00    -0.338 N
ATOM     23  O   UNL     1      30.036  16.867  -7.154  1.00  0.00    -0.272 OA
ENDBRANCH  15  16
BRANCH  15  24
ATOM     24  C   UNL     1      29.362  14.781  -5.495  1.00  0.00     0.025 C
ATOM     25  C   UNL     1      27.861  14.898  -5.561  1.00  0.00     0.011 C
ATOM     26  C   UNL     1      28.489  13.925  -4.591  1.00  0.00     0.005 C
ATOM     27  G   UNL     1      28.299  12.457  -4.823  1.00  0.00     0.000 C
ENDBRANCH  15  24
ENDBRANCH  12  15
ENDBRANCH   1  11
BRANCH   7  28
ATOM     28  C   UNL     1      31.690   9.823  -3.655  1.00  0.00     0.023 C
ATOM     29  C   UNL     1      31.030   9.013  -2.548  1.00  0.00     0.015 C
ATOM     30  C   UNL     1      32.097   8.378  -3.389  1.00  0.00     0.015 C
BRANCH  28  31
ATOM     31  C   UNL     1      30.855  10.075  -4.913  1.00  0.00     0.083 C
BRANCH  31  32
ATOM     32  S   UNL     1      29.311   9.113  -4.860  1.00  0.00    -0.161 SA
BRANCH  32  33
ATOM     33  C   UNL     1      29.283   8.484  -6.561  1.00  0.00     0.073 C
ATOM     34  G   UNL     1      29.094   6.997  -6.568  1.00  0.00     0.000 C
ENDBRANCH  32  33
ENDBRANCH  31  32
ENDBRANCH  28  31
ENDBRANCH   7  28
TORSDOF 1
ENDMDL
