MODEL 1
REMARK VINA RESULT:      -8.3      0.000      0.000
REMARK SMILES N#C[C@H]1C[C@H]2CSCC3(CC3)c3cnc4[nH]cc(c4n3)C(=O)N[C@H](C3CC3)C(=O)N2C1
REMARK SMILES IDX 12 1 13 2 14 3 15 4 16 5 17 6 18 7 19 8 20 9 21 11 23 12
REMARK SMILES IDX 22 13 24 15 28 16 29 17 30 18 1 19 2 20 3 21 4 22 31 23 5 24
REMARK SMILES IDX 25 26 26 27 27 28 9 29 10 30 11 31 8 32 7 33 6 34
REMARK H PARENT 16 10 23 14
REMARK Flexibility Score:  122.900
ROOT
ATOM      1  C   UNL     1      33.638  11.387  -2.666  1.00  0.00     0.067 A
ATOM      2  C   UNL     1      34.908  11.954  -2.474  1.00  0.00     0.138 A
ATOM      3  N   UNL     1      35.205  13.285  -2.499  1.00  0.00    -0.235 NA
ATOM      4  C   UNL     1      34.104  14.006  -2.785  1.00  0.00     0.156 A
ATOM      5  N   UNL     1      34.033  15.361  -2.949  1.00  0.00    -0.344 N
ATOM      6  C   UNL     1      32.755  15.716  -3.316  1.00  0.00     0.100 A
ATOM      7  C   UNL     1      31.975  14.568  -3.363  1.00  0.00     0.085 A
ATOM      8  C   UNL     1      32.831  13.498  -2.993  1.00  0.00     0.120 A
ATOM      9  N   UNL     1      32.559  12.172  -2.896  1.00  0.00    -0.246 NA
ATOM     10  H   UNL     1      34.824  15.983  -2.858  1.00  0.00     0.168 HD
ENDROOT
BRANCH   7  11
ATOM     11  C   UNL     1      30.585  14.475  -3.788  1.00  0.00     0.255 C
ATOM     12  N   UNL     1      30.384  14.844  -5.092  1.00  0.00    -0.340 N
ATOM     13  O   UNL     1      29.678  14.145  -3.031  1.00  0.00    -0.269 OA
ATOM     14  H   UNL     1      31.204  15.083  -5.652  1.00  0.00     0.164 HD
BRANCH  12  15
ATOM     15  C   UNL     1      29.085  15.118  -5.674  1.00  0.00     0.175 C
BRANCH  15  16
ATOM     16  C   UNL     1      29.349  16.276  -6.677  1.00  0.00     0.245 C
ATOM     17  O   UNL     1      29.100  16.161  -7.882  1.00  0.00    -0.272 OA
BRANCH  16  18
ATOM     18  N   UNL     1      30.022  17.395  -6.215  1.00  0.00    -0.336 N
ATOM     19  N   UNL     1      33.887  20.060  -5.600  1.00  0.00    -0.198 NA
ATOM     20  C   UNL     1      32.948  19.405  -5.419  1.00  0.00     0.067 C
ATOM     21  C   UNL     1      31.770  18.571  -5.180  1.00  0.00     0.114 C
ATOM     22  C   UNL     1      30.489  19.384  -4.995  1.00  0.00     0.046 C
ATOM     23  C   UNL     1      31.438  17.688  -6.376  1.00  0.00     0.138 C
ATOM     24  C   UNL     1      29.373  18.383  -5.342  1.00  0.00     0.096 C
ATOM     25  G   UNL     1      28.102  19.053  -5.923  1.00  0.00     0.000 C
ENDBRANCH  16  18
ENDBRANCH  15  16
BRANCH  15  26
ATOM     26  C   UNL     1      28.502  13.846  -6.235  1.00  0.00     0.021 C
ATOM     27  C   UNL     1      27.078  13.735  -6.724  1.00  0.00     0.006 C
ATOM     28  C   UNL     1      27.507  12.991  -5.488  1.00  0.00     0.006 C
ENDBRANCH  15  26
ENDBRANCH  12  15
ENDBRANCH   7  11
BRANCH   1  29
ATOM     29  C   UNL     1      33.412   9.874  -2.657  1.00  0.00     0.023 C
ATOM     30  C   UNL     1      34.565   8.999  -2.171  1.00  0.00     0.015 C
ATOM     31  C   UNL     1      33.357   9.170  -1.305  1.00  0.00     0.015 C
BRANCH  29  32
ATOM     32  C   UNL     1      32.558   9.330  -3.789  1.00  0.00     0.083 C
BRANCH  32  33
ATOM     33  S   UNL     1      30.783   9.212  -3.410  1.00  0.00    -0.159 SA
BRANCH  33  34
ATOM     34  C   UNL     1      30.074  10.038  -4.885  1.00  0.00     0.094 C
ATOM     35  G   UNL     1      29.456   9.076  -5.931  1.00  0.00     0.000 C
ENDBRANCH  33  34
ENDBRANCH  32  33
ENDBRANCH  29  32
ENDBRANCH   1  29
TORSDOF 1
ENDMDL
MODEL 2
REMARK VINA RESULT:      -8.2      2.020      4.358
REMARK SMILES N#C[C@H]1C[C@H]2CSCC3(CC3)c3cnc4[nH]cc(c4n3)C(=O)N[C@H](C3CC3)C(=O)N2C1
REMARK SMILES IDX 12 1 13 2 14 3 15 4 16 5 17 6 18 7 19 8 20 9 21 11 23 12
REMARK SMILES IDX 22 13 24 15 28 16 29 17 30 18 1 19 2 20 3 21 4 22 31 23 5 24
REMARK SMILES IDX 25 26 26 27 27 28 9 29 10 30 11 31 8 32 7 33 6 34
REMARK H PARENT 16 10 23 14
REMARK Flexibility Score:  122.900
ROOT
ATOM      1  C   UNL     1      30.274  10.370  -4.220  1.00  0.00     0.067 A
ATOM      2  C   UNL     1      29.285   9.494  -4.696  1.00  0.00     0.138 A
ATOM      3  N   UNL     1      28.107   9.854  -5.282  1.00  0.00    -0.235 NA
ATOM      4  C   UNL     1      27.987  11.196  -5.306  1.00  0.00     0.156 A
ATOM      5  N   UNL     1      26.917  11.913  -5.763  1.00  0.00    -0.344 N
ATOM      6  C   UNL     1      27.132  13.255  -5.544  1.00  0.00     0.100 A
ATOM      7  C   UNL     1      28.381  13.411  -4.957  1.00  0.00     0.085 A
ATOM      8  C   UNL     1      28.925  12.105  -4.842  1.00  0.00     0.120 A
ATOM      9  N   UNL     1      30.116  11.711  -4.324  1.00  0.00    -0.246 NA
ATOM     10  H   UNL     1      26.084  11.497  -6.154  1.00  0.00     0.168 HD
ENDROOT
BRANCH   7  11
ATOM     11  C   UNL     1      28.971  14.654  -4.481  1.00  0.00     0.255 C
ATOM     12  N   UNL     1      28.592  15.754  -5.205  1.00  0.00    -0.340 N
ATOM     13  O   UNL     1      29.769  14.699  -3.551  1.00  0.00    -0.269 OA
ATOM     14  H   UNL     1      27.905  15.622  -5.949  1.00  0.00     0.164 HD
BRANCH  12  15
ATOM     15  C   UNL     1      29.243  17.047  -5.130  1.00  0.00     0.175 C
BRANCH  15  16
ATOM     16  C   UNL     1      30.243  17.044  -6.321  1.00  0.00     0.245 C
ATOM     17  O   UNL     1      30.006  16.428  -7.366  1.00  0.00    -0.272 OA
BRANCH  16  18
ATOM     18  N   UNL     1      31.487  17.621  -6.127  1.00  0.00    -0.336 N
ATOM     19  N   UNL     1      34.459  21.299  -5.882  1.00  0.00    -0.198 NA
ATOM     20  C   UNL     1      33.935  20.311  -6.189  1.00  0.00     0.067 C
ATOM     21  C   UNL     1      33.275  19.069  -6.590  1.00  0.00     0.114 C
ATOM     22  C   UNL     1      33.845  17.836  -5.891  1.00  0.00     0.046 C
ATOM     23  C   UNL     1      31.807  19.039  -6.183  1.00  0.00     0.138 C
ATOM     24  C   UNL     1      32.702  16.808  -5.983  1.00  0.00     0.096 C
ATOM     25  G   UNL     1      32.691  15.792  -4.813  1.00  0.00     0.000 C
ENDBRANCH  16  18
ENDBRANCH  15  16
BRANCH  15  26
ATOM     26  C   UNL     1      28.203  18.139  -5.112  1.00  0.00     0.021 C
ATOM     27  C   UNL     1      26.978  18.130  -5.994  1.00  0.00     0.006 C
ATOM     28  C   UNL     1      28.054  19.160  -6.213  1.00  0.00     0.006 C
ENDBRANCH  15  26
ENDBRANCH  12  15
ENDBRANCH   7  11
BRANCH   1  29
ATOM     29  C   UNL     1      31.550   9.868  -3.542  1.00  0.00     0.023 C
ATOM     30  C   UNL     1      31.383   9.002  -2.296  1.00  0.00     0.015 C
ATOM     31  C   UNL     1      31.832   8.370  -3.575  1.00  0.00     0.015 C
BRANCH  29  32
ATOM     32  C   UNL     1      32.729  10.825  -3.569  1.00  0.00     0.083 C
BRANCH  32  33
ATOM     33  S   UNL     1      34.205  10.235  -2.686  1.00  0.00    -0.159 SA
BRANCH  33  34
ATOM     34  C   UNL     1      34.985  11.833  -2.241  1.00  0.00     0.094 C
ATOM     35  G   UNL     1      34.170  13.087  -2.647  1.00  0.00     0.000 C
ENDBRANCH  33  34
ENDBRANCH  32  33
ENDBRANCH  29  32
ENDBRANCH   1  29
TORSDOF 1
ENDMDL
MODEL 3
REMARK VINA RESULT:      -8.1      2.419      4.957
REMARK SMILES N#C[C@H]1C[C@H]2CSCC3(CC3)c3cnc4[nH]cc(c4n3)C(=O)N[C@H](C3CC3)C(=O)N2C1
REMARK SMILES IDX 12 1 13 2 14 3 15 4 16 5 17 6 18 7 19 8 20 9 21 11 23 12
REMARK SMILES IDX 22 13 24 15 28 16 29 17 30 18 1 19 2 20 3 21 4 22 31 23 5 24
REMARK SMILES IDX 25 26 26 27 27 28 9 29 10 30 11 31 8 32 7 33 6 34
REMARK H PARENT 16 10 23 14
REMARK Flexibility Score:  122.900
ROOT
ATOM      1  C   UNL     1      30.759   8.956  -4.451  1.00  0.00     0.067 A
ATOM      2  C   UNL     1      31.505   8.170  -3.557  1.00  0.00     0.138 A
ATOM      3  N   UNL     1      32.543   8.599  -2.783  1.00  0.00    -0.235 NA
ATOM      4  C   UNL     1      32.800   9.899  -3.023  1.00  0.00     0.156 A
ATOM      5  N   UNL     1      33.803  10.649  -2.475  1.00  0.00    -0.344 N
ATOM      6  C   UNL     1      33.795  11.909  -3.030  1.00  0.00     0.100 A
ATOM      7  C   UNL     1      32.745  11.983  -3.937  1.00  0.00     0.085 A
ATOM      8  C   UNL     1      32.104  10.718  -3.899  1.00  0.00     0.120 A
ATOM      9  N   UNL     1      31.034  10.273  -4.606  1.00  0.00    -0.246 NA
ATOM     10  H   UNL     1      34.468  10.296  -1.803  1.00  0.00     0.168 HD
ENDROOT
BRANCH   7  11
ATOM     11  C   UNL     1      32.425  13.106  -4.808  1.00  0.00     0.255 C
ATOM     12  N   UNL     1      32.291  14.296  -4.143  1.00  0.00    -0.340 N
ATOM     13  O   UNL     1      32.245  12.981  -6.015  1.00  0.00    -0.269 OA
ATOM     14  H   UNL     1      32.481  14.306  -3.140  1.00  0.00     0.164 HD
BRANCH  12  15
ATOM     15  C   UNL     1      31.702  15.491  -4.715  1.00  0.00     0.175 C
BRANCH  15  16
ATOM     16  C   UNL     1      30.389  15.697  -3.909  1.00  0.00     0.245 C
ATOM     17  O   UNL     1      30.374  15.662  -2.673  1.00  0.00    -0.272 OA
BRANCH  16  18
ATOM     18  N   UNL     1      29.198  15.765  -4.612  1.00  0.00    -0.336 N
ATOM     19  N   UNL     1      25.908  18.018  -7.166  1.00  0.00    -0.198 NA
ATOM     20  C   UNL     1      26.459  17.429  -6.331  1.00  0.00     0.067 C
ATOM     21  C   UNL     1      27.146  16.695  -5.270  1.00  0.00     0.114 C
ATOM     22  C   UNL     1      27.039  15.179  -5.424  1.00  0.00     0.046 C
ATOM     23  C   UNL     1      28.651  16.931  -5.288  1.00  0.00     0.138 C
ATOM     24  C   UNL     1      28.242  14.649  -4.623  1.00  0.00     0.096 C
ATOM     25  G   UNL     1      28.794  13.303  -5.157  1.00  0.00     0.000 C
ENDBRANCH  16  18
ENDBRANCH  15  16
BRANCH  15  26
ATOM     26  C   UNL     1      32.707  16.615  -4.688  1.00  0.00     0.021 C
ATOM     27  C   UNL     1      32.341  18.057  -4.946  1.00  0.00     0.006 C
ATOM     28  C   UNL     1      33.203  17.313  -5.931  1.00  0.00     0.006 C
ENDBRANCH  15  26
ENDBRANCH  12  15
ENDBRANCH   7  11
BRANCH   1  29
ATOM     29  C   UNL     1      29.633   8.372  -5.306  1.00  0.00     0.023 C
ATOM     30  C   UNL     1      28.340   9.179  -5.402  1.00  0.00     0.015 C
ATOM     31  C   UNL     1      29.254   9.111  -6.585  1.00  0.00     0.015 C
BRANCH  29  32
ATOM     32  C   UNL     1      29.506   6.859  -5.281  1.00  0.00     0.083 C
BRANCH  32  33
ATOM     33  S   UNL     1      29.314   6.088  -6.917  1.00  0.00    -0.159 SA
BRANCH  33  34
ATOM     34  C   UNL     1      27.509   5.766  -6.920  1.00  0.00     0.094 C
ATOM     35  G   UNL     1      26.969   5.122  -8.222  1.00  0.00     0.000 C
ENDBRANCH  33  34
ENDBRANCH  32  33
ENDBRANCH  29  32
ENDBRANCH   1  29
TORSDOF 1
ENDMDL
MODEL 4
REMARK VINA RESULT:      -8.1      2.373      4.585
REMARK SMILES N#C[C@H]1C[C@H]2CSCC3(CC3)c3cnc4[nH]cc(c4n3)C(=O)N[C@H](C3CC3)C(=O)N2C1
REMARK SMILES IDX 12 1 13 2 14 3 15 4 16 5 17 6 18 7 19 8 20 9 21 11 23 12
REMARK SMILES IDX 22 13 24 15 28 16 29 17 30 18 1 19 2 20 3 21 4 22 31 23 5 24
REMARK SMILES IDX 25 26 26 27 27 28 9 29 10 30 11 31 8 32 7 33 6 34
REMARK H PARENT 16 10 23 14
REMARK Flexibility Score:  122.900
ROOT
ATOM      1  C   UNL     1      31.602   9.198  -3.672  1.00  0.00     0.067 A
ATOM      2  C   UNL     1      31.402   7.823  -3.879  1.00  0.00     0.138 A
ATOM      3  N   UNL     1      30.391   7.257  -4.598  1.00  0.00    -0.235 NA
ATOM      4  C   UNL     1      29.556   8.208  -5.060  1.00  0.00     0.156 A
ATOM      5  N   UNL     1      28.404   8.009  -5.770  1.00  0.00    -0.344 N
ATOM      6  C   UNL     1      27.783   9.218  -5.989  1.00  0.00     0.100 A
ATOM      7  C   UNL     1      28.565  10.223  -5.433  1.00  0.00     0.085 A
ATOM      8  C   UNL     1      29.699   9.574  -4.878  1.00  0.00     0.120 A
ATOM      9  N   UNL     1      30.755  10.106  -4.212  1.00  0.00    -0.246 NA
ATOM     10  H   UNL     1      28.056   7.101  -6.038  1.00  0.00     0.168 HD
ENDROOT
BRANCH   7  11
ATOM     11  C   UNL     1      28.241  11.641  -5.363  1.00  0.00     0.255 C
ATOM     12  N   UNL     1      29.250  12.457  -5.801  1.00  0.00    -0.340 N
ATOM     13  O   UNL     1      27.182  12.059  -4.907  1.00  0.00    -0.269 OA
ATOM     14  H   UNL     1      30.088  12.017  -6.183  1.00  0.00     0.164 HD
BRANCH  12  15
ATOM     15  C   UNL     1      29.302  13.888  -5.572  1.00  0.00     0.175 C
BRANCH  15  16
ATOM     16  C   UNL     1      30.817  14.233  -5.639  1.00  0.00     0.245 C
ATOM     17  O   UNL     1      31.675  13.358  -5.798  1.00  0.00    -0.272 OA
BRANCH  16  18
ATOM     18  N   UNL     1      31.200  15.533  -5.358  1.00  0.00    -0.336 N
ATOM     19  N   UNL     1      32.411  19.949  -6.565  1.00  0.00    -0.198 NA
ATOM     20  C   UNL     1      32.422  18.869  -6.143  1.00  0.00     0.067 C
ATOM     21  C   UNL     1      32.447  17.505  -5.616  1.00  0.00     0.114 C
ATOM     22  C   UNL     1      32.010  17.420  -4.154  1.00  0.00     0.046 C
ATOM     23  C   UNL     1      31.448  16.596  -6.320  1.00  0.00     0.138 C
ATOM     24  C   UNL     1      31.558  15.957  -3.997  1.00  0.00     0.096 C
ATOM     25  G   UNL     1      30.456  15.763  -2.926  1.00  0.00     0.000 C
ENDBRANCH  16  18
ENDBRANCH  15  16
BRANCH  15  26
ATOM     26  C   UNL     1      28.395  14.592  -6.549  1.00  0.00     0.021 C
ATOM     27  C   UNL     1      28.062  16.061  -6.458  1.00  0.00     0.006 C
ATOM     28  C   UNL     1      26.992  15.032  -6.208  1.00  0.00     0.006 C
ENDBRANCH  15  26
ENDBRANCH  12  15
ENDBRANCH   7  11
BRANCH   1  29
ATOM     29  C   UNL     1      32.749   9.736  -2.816  1.00  0.00     0.023 C
ATOM     30  C   UNL     1      32.906   9.153  -1.413  1.00  0.00     0.015 C
ATOM     31  C   UNL     1      33.891   8.785  -2.476  1.00  0.00     0.015 C
BRANCH  29  32
ATOM     32  C   UNL     1      33.066  11.210  -2.993  1.00  0.00     0.083 C
BRANCH  32  33
ATOM     33  S   UNL     1      34.832  11.585  -3.215  1.00  0.00    -0.159 SA
BRANCH  33  34
ATOM     34  C   UNL     1      35.249  12.211  -1.543  1.00  0.00     0.094 C
ATOM     35  G   UNL     1      36.313  11.376  -0.786  1.00  0.00     0.000 C
ENDBRANCH  33  34
ENDBRANCH  32  33
ENDBRANCH  29  32
ENDBRANCH   1  29
TORSDOF 1
ENDMDL
MODEL 5
REMARK VINA RESULT:      -8.0      1.269      1.490
REMARK SMILES N#C[C@H]1C[C@H]2CSCC3(CC3)c3cnc4[nH]cc(c4n3)C(=O)N[C@H](C3CC3)C(=O)N2C1
REMARK SMILES IDX 12 1 13 2 14 3 15 4 16 5 17 6 18 7 19 8 20 9 21 11 23 12
REMARK SMILES IDX 22 13 24 15 28 16 29 17 30 18 1 19 2 20 3 21 4 22 31 23 5 24
REMARK SMILES IDX 25 26 26 27 27 28 9 29 10 30 11 31 8 32 7 33 6 34
REMARK H PARENT 16 10 23 14
REMARK Flexibility Score:  122.900
ROOT
ATOM      1  C   UNL     1      32.292  11.159  -3.525  1.00  0.00     0.067 A
ATOM      2  C   UNL     1      33.686  11.059  -3.389  1.00  0.00     0.138 A
ATOM      3  N   UNL     1      34.542  12.083  -3.110  1.00  0.00    -0.235 NA
ATOM      4  C   UNL     1      33.868  13.246  -3.023  1.00  0.00     0.156 A
ATOM      5  N   UNL     1      34.403  14.487  -2.813  1.00  0.00    -0.344 N
ATOM      6  C   UNL     1      33.407  15.435  -2.872  1.00  0.00     0.100 A
ATOM      7  C   UNL     1      32.197  14.790  -3.097  1.00  0.00     0.085 A
ATOM      8  C   UNL     1      32.498  13.404  -3.158  1.00  0.00     0.120 A
ATOM      9  N   UNL     1      31.668  12.351  -3.371  1.00  0.00    -0.246 NA
ATOM     10  H   UNL     1      35.389  14.663  -2.685  1.00  0.00     0.168 HD
ENDROOT
BRANCH   7  11
ATOM     11  C   UNL     1      30.901  15.419  -3.311  1.00  0.00     0.255 C
ATOM     12  N   UNL     1      30.265  14.991  -4.447  1.00  0.00    -0.340 N
ATOM     13  O   UNL     1      30.450  16.284  -2.568  1.00  0.00    -0.269 OA
ATOM     14  H   UNL     1      30.708  14.251  -4.993  1.00  0.00     0.164 HD
BRANCH  12  15
ATOM     15  C   UNL     1      29.119  15.652  -5.041  1.00  0.00     0.175 C
BRANCH  15  16
ATOM     16  C   UNL     1      29.716  16.478  -6.214  1.00  0.00     0.245 C
ATOM     17  O   UNL     1      29.785  16.021  -7.360  1.00  0.00    -0.272 OA
BRANCH  16  18
ATOM     18  N   UNL     1      30.318  17.689  -5.916  1.00  0.00    -0.336 N
ATOM     19  N   UNL     1      34.050  20.572  -5.488  1.00  0.00    -0.198 NA
ATOM     20  C   UNL     1      33.113  19.925  -5.267  1.00  0.00     0.067 C
ATOM     21  C   UNL     1      31.938  19.105  -4.977  1.00  0.00     0.114 C
ATOM     22  C   UNL     1      30.627  19.887  -5.057  1.00  0.00     0.046 C
ATOM     23  C   UNL     1      31.736  18.002  -6.009  1.00  0.00     0.138 C
ATOM     24  C   UNL     1      29.570  18.795  -5.303  1.00  0.00     0.096 C
ATOM     25  G   UNL     1      28.342  19.295  -6.105  1.00  0.00     0.000 C
ENDBRANCH  16  18
ENDBRANCH  15  16
BRANCH  15  26
ATOM     26  C   UNL     1      28.067  14.628  -5.388  1.00  0.00     0.021 C
ATOM     27  C   UNL     1      26.830  14.954  -6.190  1.00  0.00     0.006 C
ATOM     28  C   UNL     1      26.706  14.584  -4.736  1.00  0.00     0.006 C
ENDBRANCH  15  26
ENDBRANCH  12  15
ENDBRANCH   7  11
BRANCH   1  29
ATOM     29  C   UNL     1      31.418   9.955  -3.877  1.00  0.00     0.023 C
ATOM     30  C   UNL     1      31.995   8.569  -3.599  1.00  0.00     0.015 C
ATOM     31  C   UNL     1      30.895   9.094  -2.733  1.00  0.00     0.015 C
BRANCH  29  32
ATOM     32  C   UNL     1      30.554  10.110  -5.117  1.00  0.00     0.083 C
BRANCH  32  33
ATOM     33  S   UNL     1      28.825  10.563  -4.784  1.00  0.00    -0.159 SA
BRANCH  33  34
ATOM     34  C   UNL     1      27.960   9.110  -5.493  1.00  0.00     0.094 C
ATOM     35  G   UNL     1      28.801   8.283  -6.498  1.00  0.00     0.000 C
ENDBRANCH  33  34
ENDBRANCH  32  33
ENDBRANCH  29  32
ENDBRANCH   1  29
TORSDOF 1
ENDMDL
MODEL 6
REMARK VINA RESULT:      -8.0      2.404      4.940
REMARK SMILES N#C[C@H]1C[C@H]2CSCC3(CC3)c3cnc4[nH]cc(c4n3)C(=O)N[C@H](C3CC3)C(=O)N2C1
REMARK SMILES IDX 12 1 13 2 14 3 15 4 16 5 17 6 18 7 19 8 20 9 21 11 23 12
REMARK SMILES IDX 22 13 24 15 28 16 29 17 30 18 1 19 2 20 3 21 4 22 31 23 5 24
REMARK SMILES IDX 25 26 26 27 27 28 9 29 10 30 11 31 8 32 7 33 6 34
REMARK H PARENT 16 10 23 14
REMARK Flexibility Score:  122.900
ROOT
ATOM      1  C   UNL     1      30.488   9.115  -4.580  1.00  0.00     0.067 A
ATOM      2  C   UNL     1      31.198   8.279  -3.704  1.00  0.00     0.138 A
ATOM      3  N   UNL     1      32.258   8.644  -2.927  1.00  0.00    -0.235 NA
ATOM      4  C   UNL     1      32.577   9.934  -3.146  1.00  0.00     0.156 A
ATOM      5  N   UNL     1      33.617  10.625  -2.589  1.00  0.00    -0.344 N
ATOM      6  C   UNL     1      33.667  11.893  -3.123  1.00  0.00     0.100 A
ATOM      7  C   UNL     1      32.619  12.034  -4.023  1.00  0.00     0.085 A
ATOM      8  C   UNL     1      31.918  10.800  -4.004  1.00  0.00     0.120 A
ATOM      9  N   UNL     1      30.826  10.420  -4.714  1.00  0.00    -0.246 NA
ATOM     10  H   UNL     1      34.267  10.230  -1.926  1.00  0.00     0.168 HD
ENDROOT
BRANCH   7  11
ATOM     11  C   UNL     1      32.351  13.185  -4.874  1.00  0.00     0.255 C
ATOM     12  N   UNL     1      32.223  14.361  -4.182  1.00  0.00    -0.340 N
ATOM     13  O   UNL     1      32.205  13.095  -6.089  1.00  0.00    -0.269 OA
ATOM     14  H   UNL     1      32.383  14.341  -3.174  1.00  0.00     0.164 HD
BRANCH  12  15
ATOM     15  C   UNL     1      31.678  15.583  -4.740  1.00  0.00     0.175 C
BRANCH  15  16
ATOM     16  C   UNL     1      30.374  15.828  -3.931  1.00  0.00     0.245 C
ATOM     17  O   UNL     1      30.365  15.822  -2.695  1.00  0.00    -0.272 OA
BRANCH  16  18
ATOM     18  N   UNL     1      29.179  15.896  -4.629  1.00  0.00    -0.336 N
ATOM     19  N   UNL     1      25.888  18.145  -7.184  1.00  0.00    -0.198 NA
ATOM     20  C   UNL     1      26.439  17.560  -6.348  1.00  0.00     0.067 C
ATOM     21  C   UNL     1      27.129  16.831  -5.284  1.00  0.00     0.114 C
ATOM     22  C   UNL     1      27.013  15.314  -5.426  1.00  0.00     0.046 C
ATOM     23  C   UNL     1      28.635  17.060  -5.312  1.00  0.00     0.138 C
ATOM     24  C   UNL     1      28.218  14.785  -4.627  1.00  0.00     0.096 C
ATOM     25  G   UNL     1      28.761  13.432  -5.153  1.00  0.00     0.000 C
ENDBRANCH  16  18
ENDBRANCH  15  16
BRANCH  15  26
ATOM     26  C   UNL     1      32.723  16.670  -4.699  1.00  0.00     0.021 C
ATOM     27  C   UNL     1      32.421  18.119  -4.994  1.00  0.00     0.006 C
ATOM     28  C   UNL     1      33.285  17.326  -5.938  1.00  0.00     0.006 C
ENDBRANCH  15  26
ENDBRANCH  12  15
ENDBRANCH   7  11
BRANCH   1  29
ATOM     29  C   UNL     1      29.333   8.601  -5.441  1.00  0.00     0.023 C
ATOM     30  C   UNL     1      29.680   8.070  -6.830  1.00  0.00     0.015 C
ATOM     31  C   UNL     1      29.285   7.110  -5.753  1.00  0.00     0.015 C
BRANCH  29  32
ATOM     32  C   UNL     1      28.020   9.350  -5.293  1.00  0.00     0.083 C
BRANCH  32  33
ATOM     33  S   UNL     1      26.539   8.295  -5.309  1.00  0.00    -0.159 SA
BRANCH  33  34
ATOM     34  C   UNL     1      26.125   8.333  -7.094  1.00  0.00     0.094 C
ATOM     35  G   UNL     1      24.735   7.747  -7.449  1.00  0.00     0.000 C
ENDBRANCH  33  34
ENDBRANCH  32  33
ENDBRANCH  29  32
ENDBRANCH   1  29
TORSDOF 1
ENDMDL
MODEL 7
REMARK VINA RESULT:      -7.9      1.972      4.131
REMARK SMILES N#C[C@H]1C[C@H]2CSCC3(CC3)c3cnc4[nH]cc(c4n3)C(=O)N[C@H](C3CC3)C(=O)N2C1
REMARK SMILES IDX 12 1 13 2 14 3 15 4 16 5 17 6 18 7 19 8 20 9 21 11 23 12
REMARK SMILES IDX 22 13 24 15 28 16 29 17 30 18 1 19 2 20 3 21 4 22 31 23 5 24
REMARK SMILES IDX 25 26 26 27 27 28 9 29 10 30 11 31 8 32 7 33 6 34
REMARK H PARENT 16 10 23 14
REMARK Flexibility Score:  122.900
ROOT
ATOM      1  C   UNL     1      31.760   9.724  -3.751  1.00  0.00     0.067 A
ATOM      2  C   UNL     1      31.134   8.509  -4.074  1.00  0.00     0.138 A
ATOM      3  N   UNL     1      29.945   8.367  -4.726  1.00  0.00    -0.235 NA
ATOM      4  C   UNL     1      29.407   9.573  -4.988  1.00  0.00     0.156 A
ATOM      5  N   UNL     1      28.197   9.819  -5.576  1.00  0.00    -0.344 N
ATOM      6  C   UNL     1      27.960  11.175  -5.596  1.00  0.00     0.100 A
ATOM      7  C   UNL     1      29.054  11.821  -5.034  1.00  0.00     0.085 A
ATOM      8  C   UNL     1      29.975  10.800  -4.684  1.00  0.00     0.120 A
ATOM      9  N   UNL     1      31.192  10.905  -4.093  1.00  0.00    -0.246 NA
ATOM     10  H   UNL     1      27.568   9.097  -5.895  1.00  0.00     0.168 HD
ENDROOT
BRANCH   7  11
ATOM     11  C   UNL     1      29.186  13.250  -4.781  1.00  0.00     0.255 C
ATOM     12  N   UNL     1      30.406  13.760  -5.137  1.00  0.00    -0.340 N
ATOM     13  O   UNL     1      28.302  13.916  -4.253  1.00  0.00    -0.269 OA
ATOM     14  H   UNL     1      31.072  13.133  -5.590  1.00  0.00     0.164 HD
BRANCH  12  15
ATOM     15  C   UNL     1      30.897  15.063  -4.734  1.00  0.00     0.175 C
BRANCH  15  16
ATOM     16  C   UNL     1      30.433  16.017  -5.870  1.00  0.00     0.245 C
ATOM     17  O   UNL     1      29.699  15.628  -6.785  1.00  0.00    -0.272 OA
BRANCH  16  18
ATOM     18  N   UNL     1      30.992  17.283  -5.924  1.00  0.00    -0.336 N
ATOM     19  N   UNL     1      34.559  20.312  -6.647  1.00  0.00    -0.198 NA
ATOM     20  C   UNL     1      33.701  19.699  -6.164  1.00  0.00     0.067 C
ATOM     21  C   UNL     1      32.627  18.924  -5.544  1.00  0.00     0.114 C
ATOM     22  C   UNL     1      31.271  19.625  -5.606  1.00  0.00     0.046 C
ATOM     23  C   UNL     1      32.364  17.615  -6.279  1.00  0.00     0.138 C
ATOM     24  C   UNL     1      30.261  18.471  -5.463  1.00  0.00     0.096 C
ATOM     25  G   UNL     1      28.911  18.742  -6.174  1.00  0.00     0.000 C
ENDBRANCH  16  18
ENDBRANCH  15  16
BRANCH  15  26
ATOM     26  C   UNL     1      30.421  15.376  -3.338  1.00  0.00     0.021 C
ATOM     27  C   UNL     1      31.033  16.455  -2.478  1.00  0.00     0.006 C
ATOM     28  C   UNL     1      31.195  15.007  -2.096  1.00  0.00     0.006 C
ENDBRANCH  15  26
ENDBRANCH  12  15
ENDBRANCH   7  11
BRANCH   1  29
ATOM     29  C   UNL     1      33.082   9.781  -2.983  1.00  0.00     0.023 C
ATOM     30  C   UNL     1      33.042   9.423  -1.499  1.00  0.00     0.015 C
ATOM     31  C   UNL     1      33.665   8.469  -2.469  1.00  0.00     0.015 C
BRANCH  29  32
ATOM     32  C   UNL     1      34.040  10.881  -3.405  1.00  0.00     0.083 C
BRANCH  32  33
ATOM     33  S   UNL     1      33.805  12.464  -2.541  1.00  0.00    -0.159 SA
BRANCH  33  34
ATOM     34  C   UNL     1      35.504  12.757  -1.919  1.00  0.00     0.094 C
ATOM     35  G   UNL     1      36.030  11.679  -0.938  1.00  0.00     0.000 C
ENDBRANCH  33  34
ENDBRANCH  32  33
ENDBRANCH  29  32
ENDBRANCH   1  29
TORSDOF 1
ENDMDL
MODEL 8
REMARK VINA RESULT:      -7.9      1.153      1.237
REMARK SMILES N#C[C@H]1C[C@H]2CSCC3(CC3)c3cnc4[nH]cc(c4n3)C(=O)N[C@H](C3CC3)C(=O)N2C1
REMARK SMILES IDX 12 1 13 2 14 3 15 4 16 5 17 6 18 7 19 8 20 9 21 11 23 12
REMARK SMILES IDX 22 13 24 15 28 16 29 17 30 18 1 19 2 20 3 21 4 22 31 23 5 24
REMARK SMILES IDX 25 26 26 27 27 28 9 29 10 30 11 31 8 32 7 33 6 34
REMARK H PARENT 16 10 23 14
REMARK Flexibility Score:  122.900
ROOT
ATOM      1  C   UNL     1      33.758  11.404  -2.644  1.00  0.00     0.067 A
ATOM      2  C   UNL     1      34.937  11.725  -1.953  1.00  0.00     0.138 A
ATOM      3  N   UNL     1      35.477  12.971  -1.822  1.00  0.00    -0.235 NA
ATOM      4  C   UNL     1      34.740  13.875  -2.497  1.00  0.00     0.156 A
ATOM      5  N   UNL     1      35.009  15.208  -2.637  1.00  0.00    -0.344 N
ATOM      6  C   UNL     1      34.073  15.783  -3.466  1.00  0.00     0.100 A
ATOM      7  C   UNL     1      33.163  14.806  -3.848  1.00  0.00     0.085 A
ATOM      8  C   UNL     1      33.577  13.611  -3.202  1.00  0.00     0.120 A
ATOM      9  N   UNL     1      33.032  12.369  -3.257  1.00  0.00    -0.246 NA
ATOM     10  H   UNL     1      35.807  15.669  -2.225  1.00  0.00     0.168 HD
ENDROOT
BRANCH   7  11
ATOM     11  C   UNL     1      32.061  14.961  -4.787  1.00  0.00     0.255 C
ATOM     12  N   UNL     1      31.063  15.782  -4.332  1.00  0.00    -0.340 N
ATOM     13  O   UNL     1      32.014  14.370  -5.861  1.00  0.00    -0.269 OA
ATOM     14  H   UNL     1      31.201  16.248  -3.434  1.00  0.00     0.164 HD
BRANCH  12  15
ATOM     15  C   UNL     1      29.746  15.878  -4.929  1.00  0.00     0.175 C
BRANCH  15  16
ATOM     16  C   UNL     1      29.950  16.795  -6.167  1.00  0.00     0.245 C
ATOM     17  O   UNL     1      29.712  16.400  -7.314  1.00  0.00    -0.272 OA
BRANCH  16  18
ATOM     18  N   UNL     1      30.558  18.024  -5.973  1.00  0.00    -0.336 N
ATOM     19  N   UNL     1      34.301  20.919  -5.817  1.00  0.00    -0.198 NA
ATOM     20  C   UNL     1      33.365  20.295  -5.534  1.00  0.00     0.067 C
ATOM     21  C   UNL     1      32.192  19.504  -5.167  1.00  0.00     0.114 C
ATOM     22  C   UNL     1      30.882  20.282  -5.294  1.00  0.00     0.046 C
ATOM     23  C   UNL     1      31.976  18.324  -6.106  1.00  0.00     0.138 C
ATOM     24  C   UNL     1      29.820  19.177  -5.441  1.00  0.00     0.096 C
ATOM     25  G   UNL     1      28.583  19.616  -6.266  1.00  0.00     0.000 C
ENDBRANCH  16  18
ENDBRANCH  15  16
BRANCH  15  26
ATOM     26  C   UNL     1      29.201  14.494  -5.183  1.00  0.00     0.021 C
ATOM     27  C   UNL     1      27.746  14.133  -5.008  1.00  0.00     0.006 C
ATOM     28  C   UNL     1      28.780  13.554  -4.079  1.00  0.00     0.006 C
ENDBRANCH  15  26
ENDBRANCH  12  15
ENDBRANCH   7  11
BRANCH   1  29
ATOM     29  C   UNL     1      33.251   9.966  -2.767  1.00  0.00     0.023 C
ATOM     30  C   UNL     1      34.265   8.847  -2.543  1.00  0.00     0.015 C
ATOM     31  C   UNL     1      33.220   9.111  -1.506  1.00  0.00     0.015 C
BRANCH  29  32
ATOM     32  C   UNL     1      32.184   9.733  -3.823  1.00  0.00     0.083 C
BRANCH  32  33
ATOM     33  S   UNL     1      30.991   8.422  -3.419  1.00  0.00    -0.159 SA
BRANCH  33  34
ATOM     34  C   UNL     1      30.114   8.267  -5.022  1.00  0.00     0.094 C
ATOM     35  G   UNL     1      29.412   9.561  -5.504  1.00  0.00     0.000 C
ENDBRANCH  33  34
ENDBRANCH  32  33
ENDBRANCH  29  32
ENDBRANCH   1  29
TORSDOF 1
ENDMDL
MODEL 9
REMARK VINA RESULT:      -7.8      3.011      5.654
REMARK SMILES N#C[C@H]1C[C@H]2CSCC3(CC3)c3cnc4[nH]cc(c4n3)C(=O)N[C@H](C3CC3)C(=O)N2C1
REMARK SMILES IDX 12 1 13 2 14 3 15 4 16 5 17 6 18 7 19 8 20 9 21 11 23 12
REMARK SMILES IDX 22 13 24 15 28 16 29 17 30 18 1 19 2 20 3 21 4 22 31 23 5 24
REMARK SMILES IDX 25 26 26 27 27 28 9 29 10 30 11 31 8 32 7 33 6 34
REMARK H PARENT 16 10 23 14
REMARK Flexibility Score:  122.900
ROOT
ATOM      1  C   UNL     1      29.340   8.053  -6.008  1.00  0.00     0.067 A
ATOM      2  C   UNL     1      29.686   6.813  -5.447  1.00  0.00     0.138 A
ATOM      3  N   UNL     1      30.530   6.615  -4.394  1.00  0.00    -0.235 NA
ATOM      4  C   UNL     1      31.042   7.789  -3.977  1.00  0.00     0.156 A
ATOM      5  N   UNL     1      31.964   7.973  -2.984  1.00  0.00    -0.344 N
ATOM      6  C   UNL     1      32.301   9.305  -2.907  1.00  0.00     0.100 A
ATOM      7  C   UNL     1      31.559  10.002  -3.852  1.00  0.00     0.085 A
ATOM      8  C   UNL     1      30.743   9.038  -4.499  1.00  0.00     0.120 A
ATOM      9  N   UNL     1      29.848   9.203  -5.506  1.00  0.00    -0.246 NA
ATOM     10  H   UNL     1      32.360   7.223  -2.436  1.00  0.00     0.168 HD
ENDROOT
BRANCH   7  11
ATOM     11  C   UNL     1      31.665  11.420  -4.169  1.00  0.00     0.255 C
ATOM     12  N   UNL     1      30.519  12.127  -3.910  1.00  0.00    -0.340 N
ATOM     13  O   UNL     1      32.669  11.918  -4.666  1.00  0.00    -0.269 OA
ATOM     14  H   UNL     1      29.741  11.630  -3.475  1.00  0.00     0.164 HD
BRANCH  12  15
ATOM     15  C   UNL     1      30.259  13.468  -4.393  1.00  0.00     0.175 C
BRANCH  15  16
ATOM     16  C   UNL     1      28.899  13.352  -5.138  1.00  0.00     0.245 C
ATOM     17  O   UNL     1      28.491  12.272  -5.578  1.00  0.00    -0.272 OA
BRANCH  16  18
ATOM     18  N   UNL     1      28.221  14.521  -5.439  1.00  0.00    -0.336 N
ATOM     19  N   UNL     1      27.870  18.847  -7.332  1.00  0.00    -0.198 NA
ATOM     20  C   UNL     1      27.895  17.957  -6.589  1.00  0.00     0.067 C
ATOM     21  C   UNL     1      27.933  16.842  -5.644  1.00  0.00     0.114 C
ATOM     22  C   UNL     1      26.559  16.224  -5.391  1.00  0.00     0.046 C
ATOM     23  C   UNL     1      28.740  15.664  -6.176  1.00  0.00     0.138 C
ATOM     24  C   UNL     1      26.888  14.805  -4.892  1.00  0.00     0.096 C
ATOM     25  G   UNL     1      25.792  13.763  -5.229  1.00  0.00     0.000 C
ENDBRANCH  16  18
ENDBRANCH  15  16
BRANCH  15  26
ATOM     26  C   UNL     1      30.331  14.444  -3.246  1.00  0.00     0.021 C
ATOM     27  C   UNL     1      30.932  15.824  -3.371  1.00  0.00     0.006 C
ATOM     28  C   UNL     1      31.614  14.782  -2.525  1.00  0.00     0.006 C
ENDBRANCH  15  26
ENDBRANCH  12  15
ENDBRANCH   7  11
BRANCH   1  29
ATOM     29  C   UNL     1      28.410   8.170  -7.217  1.00  0.00     0.023 C
ATOM     30  C   UNL     1      29.065   8.320  -8.589  1.00  0.00     0.015 C
ATOM     31  C   UNL     1      28.406   7.027  -8.226  1.00  0.00     0.015 C
BRANCH  29  32
ATOM     32  C   UNL     1      27.116   8.928  -6.979  1.00  0.00     0.083 C
BRANCH  32  33
ATOM     33  S   UNL     1      25.634   7.881  -6.868  1.00  0.00    -0.159 SA
BRANCH  33  34
ATOM     34  C   UNL     1      25.658   7.461  -5.084  1.00  0.00     0.094 C
ATOM     35  G   UNL     1      26.124   6.018  -4.765  1.00  0.00     0.000 C
ENDBRANCH  33  34
ENDBRANCH  32  33
ENDBRANCH  29  32
ENDBRANCH   1  29
TORSDOF 1
ENDMDL
