MODEL 1
REMARK VINA RESULT:      -8.6      0.000      0.000
REMARK SMILES N#CC1CN(C(=O)[C@@H]2NC(=O)c3c[nH]c4ncc(nc34)C3(CC3)CNC[C@H]3C[C@H]32)C1
REMARK SMILES IDX 12 1 13 2 14 3 15 4 16 5 17 6 18 7 19 8 20 9 10 11 9 12
REMARK SMILES IDX 11 13 8 15 6 16 1 17 2 18 3 19 4 20 30 21 5 22 7 23 29 24
REMARK SMILES IDX 28 25 27 26 21 28 22 29 23 30 24 31 25 32 26 34
REMARK H PARENT 14 10 9 14 25 33
REMARK Flexibility Score:   64.900
ROOT
ATOM      1  C   UNL     1      34.108  11.992  -2.795  1.00  0.00     0.085 A
ATOM      2  C   UNL     1      35.113  11.432  -2.018  1.00  0.00     0.100 A
ATOM      3  N   UNL     1      34.852  10.089  -1.868  1.00  0.00    -0.344 N
ATOM      4  C   UNL     1      33.680   9.778  -2.499  1.00  0.00     0.156 A
ATOM      5  N   UNL     1      33.064   8.582  -2.519  1.00  0.00    -0.235 NA
ATOM      6  C   UNL     1      31.883   8.666  -3.203  1.00  0.00     0.138 A
ATOM      7  C   UNL     1      31.359   9.809  -3.835  1.00  0.00     0.067 A
ATOM      8  N   UNL     1      32.062  10.963  -3.806  1.00  0.00    -0.246 NA
ATOM      9  C   UNL     1      33.218  10.935  -3.102  1.00  0.00     0.120 A
ATOM     10  H   UNL     1      35.404   9.426  -1.341  1.00  0.00     0.168 HD
ENDROOT
BRANCH   1  11
ATOM     11  C   UNL     1      33.959  13.396  -3.147  1.00  0.00     0.255 C
ATOM     12  N   UNL     1      32.885  13.664  -3.965  1.00  0.00    -0.340 N
ATOM     13  O   UNL     1      34.700  14.270  -2.709  1.00  0.00    -0.269 OA
ATOM     14  H   UNL     1      32.313  12.884  -4.280  1.00  0.00     0.164 HD
BRANCH  12  15
ATOM     15  C   UNL     1      32.398  15.011  -4.158  1.00  0.00     0.175 C
BRANCH  15  16
ATOM     16  C   UNL     1      32.560  15.406  -5.652  1.00  0.00     0.245 C
ATOM     17  N   UNL     1      34.789  20.494  -6.766  1.00  0.00    -0.198 NA
ATOM     18  C   UNL     1      33.967  19.690  -6.605  1.00  0.00     0.069 C
ATOM     19  C   UNL     1      32.930  18.709  -6.403  1.00  0.00     0.131 C
ATOM     20  C   UNL     1      33.026  17.897  -5.096  1.00  0.00     0.140 C
ATOM     21  C   UNL     1      33.107  17.383  -7.163  1.00  0.00     0.140 C
ATOM     22  N   UNL     1      32.779  16.729  -5.911  1.00  0.00    -0.338 N
ATOM     23  O   UNL     1      32.490  14.577  -6.564  1.00  0.00    -0.272 OA
ENDBRANCH  15  16
BRANCH  15  24
ATOM     24  C   UNL     1      30.939  15.093  -3.755  1.00  0.00     0.026 C
ATOM     25  C   UNL     1      30.406  16.419  -3.273  1.00  0.00     0.012 C
ATOM     26  C   UNL     1      30.377  15.234  -2.338  1.00  0.00     0.009 C
ATOM     27  G   UNL     1      31.218  15.217  -1.094  1.00  0.00     0.000 C
ENDBRANCH  15  24
ENDBRANCH  12  15
ENDBRANCH   1  11
BRANCH   7  28
ATOM     28  C   UNL     1      29.999   9.843  -4.565  1.00  0.00     0.027 C
ATOM     29  C   UNL     1      29.913   9.237  -5.964  1.00  0.00     0.016 C
ATOM     30  C   UNL     1      29.245   8.543  -4.816  1.00  0.00     0.016 C
BRANCH  28  31
ATOM     31  C   UNL     1      29.159  11.105  -4.323  1.00  0.00     0.094 C
BRANCH  31  32
ATOM     32  N   UNL     1      29.413  12.173  -5.300  1.00  0.00    -0.315 NA
ATOM     33  H   UNL     1      29.588  11.758  -6.213  1.00  0.00     0.122 HD
BRANCH  32  34
ATOM     34  C   UNL     1      28.334  13.153  -5.437  1.00  0.00     0.085 C
ATOM     35  G   UNL     1      27.348  12.754  -6.497  1.00  0.00     0.000 C
ENDBRANCH  32  34
ENDBRANCH  31  32
ENDBRANCH  28  31
ENDBRANCH   7  28
TORSDOF 1
ENDMDL
MODEL 2
REMARK VINA RESULT:      -8.4      1.309      1.854
REMARK SMILES N#CC1CN(C(=O)[C@@H]2NC(=O)c3c[nH]c4ncc(nc34)C3(CC3)CNC[C@H]3C[C@H]32)C1
REMARK SMILES IDX 12 1 13 2 14 3 15 4 16 5 17 6 18 7 19 8 20 9 10 11 9 12
REMARK SMILES IDX 11 13 8 15 6 16 1 17 2 18 3 19 4 20 30 21 5 22 7 23 29 24
REMARK SMILES IDX 28 25 27 26 21 28 22 29 23 30 24 31 25 32 26 34
REMARK H PARENT 14 10 9 14 25 33
REMARK Flexibility Score:   64.900
ROOT
ATOM      1  C   UNL     1      34.562  12.341  -2.510  1.00  0.00     0.085 A
ATOM      2  C   UNL     1      35.605  11.975  -1.668  1.00  0.00     0.100 A
ATOM      3  N   UNL     1      35.518  10.623  -1.427  1.00  0.00    -0.344 N
ATOM      4  C   UNL     1      34.419  10.115  -2.063  1.00  0.00     0.156 A
ATOM      5  N   UNL     1      33.966   8.849  -2.011  1.00  0.00    -0.235 NA
ATOM      6  C   UNL     1      32.809   8.727  -2.729  1.00  0.00     0.138 A
ATOM      7  C   UNL     1      32.162   9.743  -3.456  1.00  0.00     0.067 A
ATOM      8  N   UNL     1      32.706  10.980  -3.494  1.00  0.00    -0.246 NA
ATOM      9  C   UNL     1      33.831  11.155  -2.761  1.00  0.00     0.120 A
ATOM     10  H   UNL     1      36.133  10.078  -0.840  1.00  0.00     0.168 HD
ENDROOT
BRANCH   1  11
ATOM     11  C   UNL     1      34.242  13.684  -2.967  1.00  0.00     0.255 C
ATOM     12  N   UNL     1      33.113  13.762  -3.750  1.00  0.00    -0.340 N
ATOM     13  O   UNL     1      34.898  14.668  -2.640  1.00  0.00    -0.269 OA
ATOM     14  H   UNL     1      32.620  12.901  -3.971  1.00  0.00     0.164 HD
BRANCH  12  15
ATOM     15  C   UNL     1      32.470  15.027  -4.027  1.00  0.00     0.175 C
BRANCH  15  16
ATOM     16  C   UNL     1      32.636  15.367  -5.534  1.00  0.00     0.245 C
ATOM     17  N   UNL     1      34.803  20.438  -6.830  1.00  0.00    -0.198 NA
ATOM     18  C   UNL     1      33.992  19.629  -6.643  1.00  0.00     0.069 C
ATOM     19  C   UNL     1      32.967  18.643  -6.409  1.00  0.00     0.131 C
ATOM     20  C   UNL     1      33.066  17.884  -5.071  1.00  0.00     0.140 C
ATOM     21  C   UNL     1      33.166  17.291  -7.117  1.00  0.00     0.140 C
ATOM     22  N   UNL     1      32.839  16.681  -5.843  1.00  0.00    -0.338 N
ATOM     23  O   UNL     1      32.583  14.503  -6.414  1.00  0.00    -0.272 OA
ENDBRANCH  15  16
BRANCH  15  24
ATOM     24  C   UNL     1      30.999  14.945  -3.673  1.00  0.00     0.026 C
ATOM     25  C   UNL     1      30.292  16.213  -3.265  1.00  0.00     0.012 C
ATOM     26  C   UNL     1      30.374  15.071  -2.282  1.00  0.00     0.009 C
ATOM     27  G   UNL     1      31.166  15.206  -1.012  1.00  0.00     0.000 C
ENDBRANCH  15  24
ENDBRANCH  12  15
ENDBRANCH   1  11
BRANCH   7  28
ATOM     28  C   UNL     1      30.836   9.545  -4.221  1.00  0.00     0.027 C
ATOM     29  C   UNL     1      29.629  10.384  -3.805  1.00  0.00     0.016 C
ATOM     30  C   UNL     1      30.305  10.662  -5.113  1.00  0.00     0.016 C
BRANCH  28  31
ATOM     31  C   UNL     1      30.540   8.103  -4.654  1.00  0.00     0.094 C
BRANCH  31  32
ATOM     32  N   UNL     1      29.254   7.953  -5.349  1.00  0.00    -0.315 NA
ATOM     33  H   UNL     1      28.821   8.868  -5.456  1.00  0.00     0.122 HD
BRANCH  32  34
ATOM     34  C   UNL     1      29.336   7.323  -6.669  1.00  0.00     0.085 C
ATOM     35  G   UNL     1      28.971   8.280  -7.768  1.00  0.00     0.000 C
ENDBRANCH  32  34
ENDBRANCH  31  32
ENDBRANCH  28  31
ENDBRANCH   7  28
TORSDOF 1
ENDMDL
MODEL 3
REMARK VINA RESULT:      -8.2      1.850      2.904
REMARK SMILES N#CC1CN(C(=O)[C@@H]2NC(=O)c3c[nH]c4ncc(nc34)C3(CC3)CNC[C@H]3C[C@H]32)C1
REMARK SMILES IDX 12 1 13 2 14 3 15 4 16 5 17 6 18 7 19 8 20 9 10 11 9 12
REMARK SMILES IDX 11 13 8 15 6 16 1 17 2 18 3 19 4 20 30 21 5 22 7 23 29 24
REMARK SMILES IDX 28 25 27 26 21 28 22 29 23 30 24 31 25 32 26 34
REMARK H PARENT 14 10 9 14 25 33
REMARK Flexibility Score:   64.900
ROOT
ATOM      1  C   UNL     1      33.974  13.301  -2.928  1.00  0.00     0.085 A
ATOM      2  C   UNL     1      35.164  13.282  -2.212  1.00  0.00     0.100 A
ATOM      3  N   UNL     1      35.478  11.974  -1.920  1.00  0.00    -0.344 N
ATOM      4  C   UNL     1      34.495  11.151  -2.398  1.00  0.00     0.156 A
ATOM      5  N   UNL     1      34.414   9.817  -2.250  1.00  0.00    -0.235 NA
ATOM      6  C   UNL     1      33.262   9.344  -2.814  1.00  0.00     0.138 A
ATOM      7  C   UNL     1      32.285  10.101  -3.487  1.00  0.00     0.067 A
ATOM      8  N   UNL     1      32.462  11.433  -3.630  1.00  0.00    -0.246 NA
ATOM      9  C   UNL     1      33.571  11.949  -3.049  1.00  0.00     0.120 A
ATOM     10  H   UNL     1      36.280  11.651  -1.397  1.00  0.00     0.168 HD
ENDROOT
BRANCH   1  11
ATOM     11  C   UNL     1      33.251  14.478  -3.384  1.00  0.00     0.255 C
ATOM     12  N   UNL     1      32.632  14.325  -4.604  1.00  0.00    -0.340 N
ATOM     13  O   UNL     1      33.161  15.500  -2.712  1.00  0.00    -0.269 OA
ATOM     14  H   UNL     1      32.749  13.443  -5.096  1.00  0.00     0.164 HD
BRANCH  12  15
ATOM     15  C   UNL     1      31.624  15.254  -5.063  1.00  0.00     0.175 C
BRANCH  15  16
ATOM     16  C   UNL     1      32.295  16.347  -5.940  1.00  0.00     0.245 C
ATOM     17  N   UNL     1      31.779  21.725  -4.237  1.00  0.00    -0.198 NA
ATOM     18  C   UNL     1      31.545  20.757  -4.833  1.00  0.00     0.069 C
ATOM     19  C   UNL     1      31.233  19.564  -5.580  1.00  0.00     0.131 C
ATOM     20  C   UNL     1      31.049  18.283  -4.743  1.00  0.00     0.140 C
ATOM     21  C   UNL     1      32.425  18.870  -6.262  1.00  0.00     0.140 C
ATOM     22  N   UNL     1      31.896  17.634  -5.719  1.00  0.00    -0.338 N
ATOM     23  O   UNL     1      33.138  16.075  -6.799  1.00  0.00    -0.272 OA
ENDBRANCH  15  16
BRANCH  15  24
ATOM     24  C   UNL     1      30.573  14.516  -5.867  1.00  0.00     0.026 C
ATOM     25  C   UNL     1      29.229  15.173  -6.058  1.00  0.00     0.012 C
ATOM     26  C   UNL     1      29.301  13.850  -5.336  1.00  0.00     0.009 C
ATOM     27  G   UNL     1      28.948  13.749  -3.879  1.00  0.00     0.000 C
ENDBRANCH  15  24
ENDBRANCH  12  15
ENDBRANCH   1  11
BRANCH   7  28
ATOM     28  C   UNL     1      30.986   9.507  -4.073  1.00  0.00     0.027 C
ATOM     29  C   UNL     1      29.681  10.270  -3.859  1.00  0.00     0.016 C
ATOM     30  C   UNL     1      30.288  10.216  -5.228  1.00  0.00     0.016 C
BRANCH  28  31
ATOM     31  C   UNL     1      30.890   7.976  -4.029  1.00  0.00     0.094 C
BRANCH  31  32
ATOM     32  N   UNL     1      30.277   7.394  -5.231  1.00  0.00    -0.315 NA
ATOM     33  H   UNL     1      31.001   7.212  -5.923  1.00  0.00     0.122 HD
BRANCH  32  34
ATOM     34  C   UNL     1      29.532   6.154  -5.005  1.00  0.00     0.085 C
ATOM     35  G   UNL     1      29.170   5.476  -6.296  1.00  0.00     0.000 C
ENDBRANCH  32  34
ENDBRANCH  31  32
ENDBRANCH  28  31
ENDBRANCH   7  28
TORSDOF 1
ENDMDL
MODEL 4
REMARK VINA RESULT:      -8.1      1.473      2.617
REMARK SMILES N#CC1CN(C(=O)[C@@H]2NC(=O)c3c[nH]c4ncc(nc34)C3(CC3)CNC[C@H]3C[C@H]32)C1
REMARK SMILES IDX 12 1 13 2 14 3 15 4 16 5 17 6 18 7 19 8 20 9 10 11 9 12
REMARK SMILES IDX 11 13 8 15 6 16 1 17 2 18 3 19 4 20 30 21 5 22 7 23 29 24
REMARK SMILES IDX 28 25 27 26 21 28 22 29 23 30 24 31 25 32 26 34
REMARK H PARENT 14 10 9 14 25 33
REMARK Flexibility Score:   64.900
ROOT
ATOM      1  C   UNL     1      34.373  12.569  -2.552  1.00  0.00     0.085 A
ATOM      2  C   UNL     1      35.484  12.478  -1.725  1.00  0.00     0.100 A
ATOM      3  N   UNL     1      35.648  11.161  -1.356  1.00  0.00    -0.344 N
ATOM      4  C   UNL     1      34.643  10.408  -1.897  1.00  0.00     0.156 A
ATOM      5  N   UNL     1      34.427   9.093  -1.710  1.00  0.00    -0.235 NA
ATOM      6  C   UNL     1      33.294   8.698  -2.364  1.00  0.00     0.138 A
ATOM      7  C   UNL     1      32.457   9.507  -3.155  1.00  0.00     0.067 A
ATOM      8  N   UNL     1      32.768  10.811  -3.329  1.00  0.00    -0.246 NA
ATOM      9  C   UNL     1      33.861  11.253  -2.663  1.00  0.00     0.120 A
ATOM     10  H   UNL     1      36.365  10.794  -0.747  1.00  0.00     0.168 HD
ENDROOT
BRANCH   1  11
ATOM     11  C   UNL     1      33.805  13.783  -3.118  1.00  0.00     0.255 C
ATOM     12  N   UNL     1      32.708  13.574  -3.923  1.00  0.00    -0.340 N
ATOM     13  O   UNL     1      34.240  14.900  -2.858  1.00  0.00    -0.269 OA
ATOM     14  H   UNL     1      32.405  12.617  -4.084  1.00  0.00     0.164 HD
BRANCH  12  15
ATOM     15  C   UNL     1      31.835  14.659  -4.308  1.00  0.00     0.175 C
BRANCH  15  16
ATOM     16  C   UNL     1      32.289  15.218  -5.685  1.00  0.00     0.245 C
ATOM     17  N   UNL     1      34.189  20.553  -5.825  1.00  0.00    -0.198 NA
ATOM     18  C   UNL     1      33.437  19.675  -5.927  1.00  0.00     0.069 C
ATOM     19  C   UNL     1      32.485  18.600  -6.054  1.00  0.00     0.131 C
ATOM     20  C   UNL     1      32.366  17.668  -4.832  1.00  0.00     0.140 C
ATOM     21  C   UNL     1      32.960  17.377  -6.858  1.00  0.00     0.140 C
ATOM     22  N   UNL     1      32.426  16.574  -5.776  1.00  0.00    -0.338 N
ATOM     23  O   UNL     1      32.508  14.485  -6.653  1.00  0.00    -0.272 OA
ENDBRANCH  15  16
BRANCH  15  24
ATOM     24  C   UNL     1      30.405  14.163  -4.395  1.00  0.00     0.026 C
ATOM     25  C   UNL     1      29.674  14.322  -5.705  1.00  0.00     0.012 C
ATOM     26  C   UNL     1      29.135  15.013  -4.476  1.00  0.00     0.009 C
ATOM     27  G   UNL     1      29.118  16.512  -4.384  1.00  0.00     0.000 C
ENDBRANCH  15  24
ENDBRANCH  12  15
ENDBRANCH   1  11
BRANCH   7  28
ATOM     28  C   UNL     1      31.170   9.004  -3.843  1.00  0.00     0.027 C
ATOM     29  C   UNL     1      29.948   9.921  -3.852  1.00  0.00     0.016 C
ATOM     30  C   UNL     1      30.692   9.669  -5.128  1.00  0.00     0.016 C
BRANCH  28  31
ATOM     31  C   UNL     1      30.888   7.503  -3.683  1.00  0.00     0.094 C
BRANCH  31  32
ATOM     32  N   UNL     1      30.691   6.807  -4.962  1.00  0.00    -0.315 NA
ATOM     33  H   UNL     1      31.178   5.914  -4.937  1.00  0.00     0.122 HD
BRANCH  32  34
ATOM     34  C   UNL     1      29.293   6.561  -5.322  1.00  0.00     0.085 C
ATOM     35  G   UNL     1      28.979   5.094  -5.376  1.00  0.00     0.000 C
ENDBRANCH  32  34
ENDBRANCH  31  32
ENDBRANCH  28  31
ENDBRANCH   7  28
TORSDOF 1
ENDMDL
MODEL 5
REMARK VINA RESULT:      -8.1      2.421      3.841
REMARK SMILES N#CC1CN(C(=O)[C@@H]2NC(=O)c3c[nH]c4ncc(nc34)C3(CC3)CNC[C@H]3C[C@H]32)C1
REMARK SMILES IDX 12 1 13 2 14 3 15 4 16 5 17 6 18 7 19 8 20 9 10 11 9 12
REMARK SMILES IDX 11 13 8 15 6 16 1 17 2 18 3 19 4 20 30 21 5 22 7 23 29 24
REMARK SMILES IDX 28 25 27 26 21 28 22 29 23 30 24 31 25 32 26 34
REMARK H PARENT 14 10 9 14 25 33
REMARK Flexibility Score:   64.900
ROOT
ATOM      1  C   UNL     1      32.546  12.600  -4.349  1.00  0.00     0.085 A
ATOM      2  C   UNL     1      33.534  12.598  -3.372  1.00  0.00     0.100 A
ATOM      3  N   UNL     1      33.533  11.368  -2.753  1.00  0.00    -0.344 N
ATOM      4  C   UNL     1      32.541  10.590  -3.284  1.00  0.00     0.156 A
ATOM      5  N   UNL     1      32.188   9.352  -2.894  1.00  0.00    -0.235 NA
ATOM      6  C   UNL     1      31.115   8.912  -3.619  1.00  0.00     0.138 A
ATOM      7  C   UNL     1      30.458   9.608  -4.651  1.00  0.00     0.067 A
ATOM      8  N   UNL     1      30.903  10.832  -5.012  1.00  0.00    -0.246 NA
ATOM      9  C   UNL     1      31.938  11.323  -4.291  1.00  0.00     0.120 A
ATOM     10  H   UNL     1      34.133  11.078  -1.994  1.00  0.00     0.168 HD
ENDROOT
BRANCH   1  11
ATOM     11  C   UNL     1      32.164  13.718  -5.197  1.00  0.00     0.255 C
ATOM     12  N   UNL     1      31.443  14.697  -4.552  1.00  0.00    -0.340 N
ATOM     13  O   UNL     1      32.500  13.801  -6.374  1.00  0.00    -0.269 OA
ATOM     14  H   UNL     1      31.209  14.557  -3.573  1.00  0.00     0.164 HD
BRANCH  12  15
ATOM     15  C   UNL     1      31.252  16.005  -5.137  1.00  0.00     0.175 C
BRANCH  15  16
ATOM     16  C   UNL     1      29.894  16.589  -4.659  1.00  0.00     0.245 C
ATOM     17  N   UNL     1      25.506  16.210  -8.222  1.00  0.00    -0.198 NA
ATOM     18  C   UNL     1      26.412  16.688  -7.676  1.00  0.00     0.069 C
ATOM     19  C   UNL     1      27.538  17.299  -7.015  1.00  0.00     0.131 C
ATOM     20  C   UNL     1      28.844  16.480  -7.029  1.00  0.00     0.140 C
ATOM     21  C   UNL     1      27.558  17.183  -5.481  1.00  0.00     0.140 C
ATOM     22  N   UNL     1      28.947  16.794  -5.621  1.00  0.00    -0.338 N
ATOM     23  O   UNL     1      29.675  16.862  -3.475  1.00  0.00    -0.272 OA
ENDBRANCH  15  16
BRANCH  15  24
ATOM     24  C   UNL     1      32.385  16.924  -4.722  1.00  0.00     0.026 C
ATOM     25  C   UNL     1      32.297  18.381  -5.101  1.00  0.00     0.012 C
ATOM     26  C   UNL     1      33.443  17.554  -5.631  1.00  0.00     0.009 C
ATOM     27  G   UNL     1      33.570  17.269  -7.100  1.00  0.00     0.000 C
ENDBRANCH  15  24
ENDBRANCH  12  15
ENDBRANCH   1  11
BRANCH   7  28
ATOM     28  C   UNL     1      29.228   9.066  -5.409  1.00  0.00     0.027 C
ATOM     29  C   UNL     1      29.453   8.370  -6.750  1.00  0.00     0.016 C
ATOM     30  C   UNL     1      29.037   7.561  -5.559  1.00  0.00     0.016 C
BRANCH  28  31
ATOM     31  C   UNL     1      27.961   9.925  -5.298  1.00  0.00     0.094 C
BRANCH  31  32
ATOM     32  N   UNL     1      28.024  11.165  -6.084  1.00  0.00    -0.315 NA
ATOM     33  H   UNL     1      27.360  11.109  -6.853  1.00  0.00     0.122 HD
BRANCH  32  34
ATOM     34  C   UNL     1      27.753  12.389  -5.328  1.00  0.00     0.085 C
ATOM     35  G   UNL     1      26.875  13.337  -6.094  1.00  0.00     0.000 C
ENDBRANCH  32  34
ENDBRANCH  31  32
ENDBRANCH  28  31
ENDBRANCH   7  28
TORSDOF 1
ENDMDL
MODEL 6
REMARK VINA RESULT:      -8.1      1.912      2.663
REMARK SMILES N#CC1CN(C(=O)[C@@H]2NC(=O)c3c[nH]c4ncc(nc34)C3(CC3)CNC[C@H]3C[C@H]32)C1
REMARK SMILES IDX 12 1 13 2 14 3 15 4 16 5 17 6 18 7 19 8 20 9 10 11 9 12
REMARK SMILES IDX 11 13 8 15 6 16 1 17 2 18 3 19 4 20 30 21 5 22 7 23 29 24
REMARK SMILES IDX 28 25 27 26 21 28 22 29 23 30 24 31 25 32 26 34
REMARK H PARENT 14 10 9 14 25 33
REMARK Flexibility Score:   64.900
ROOT
ATOM      1  C   UNL     1      33.903  14.163  -2.919  1.00  0.00     0.085 A
ATOM      2  C   UNL     1      35.145  14.382  -2.338  1.00  0.00     0.100 A
ATOM      3  N   UNL     1      35.711  13.161  -2.044  1.00  0.00    -0.344 N
ATOM      4  C   UNL     1      34.844  12.161  -2.388  1.00  0.00     0.156 A
ATOM      5  N   UNL     1      35.014  10.841  -2.195  1.00  0.00    -0.235 NA
ATOM      6  C   UNL     1      33.910  10.152  -2.615  1.00  0.00     0.138 A
ATOM      7  C   UNL     1      32.752  10.698  -3.198  1.00  0.00     0.067 A
ATOM      8  N   UNL     1      32.677  12.033  -3.398  1.00  0.00    -0.246 NA
ATOM      9  C   UNL     1      33.733  12.758  -2.957  1.00  0.00     0.120 A
ATOM     10  H   UNL     1      36.607  13.006  -1.604  1.00  0.00     0.168 HD
ENDROOT
BRANCH   1  11
ATOM     11  C   UNL     1      32.942  15.176  -3.326  1.00  0.00     0.255 C
ATOM     12  N   UNL     1      32.666  15.185  -4.675  1.00  0.00    -0.340 N
ATOM     13  O   UNL     1      32.389  15.923  -2.525  1.00  0.00    -0.269 OA
ATOM     14  H   UNL     1      33.162  14.529  -5.272  1.00  0.00     0.164 HD
BRANCH  12  15
ATOM     15  C   UNL     1      31.524  15.892  -5.208  1.00  0.00     0.175 C
BRANCH  15  16
ATOM     16  C   UNL     1      32.016  17.045  -6.127  1.00  0.00     0.245 C
ATOM     17  N   UNL     1      32.063  22.271  -3.942  1.00  0.00    -0.198 NA
ATOM     18  C   UNL     1      31.672  21.358  -4.544  1.00  0.00     0.069 C
ATOM     19  C   UNL     1      31.164  20.235  -5.291  1.00  0.00     0.131 C
ATOM     20  C   UNL     1      31.131  18.892  -4.535  1.00  0.00     0.140 C
ATOM     21  C   UNL     1      32.152  19.584  -6.274  1.00  0.00     0.140 C
ATOM     22  N   UNL     1      31.719  18.314  -5.724  1.00  0.00    -0.338 N
ATOM     23  O   UNL     1      32.639  16.833  -7.172  1.00  0.00    -0.272 OA
ENDBRANCH  15  16
BRANCH  15  24
ATOM     24  C   UNL     1      30.651  14.937  -5.998  1.00  0.00     0.026 C
ATOM     25  C   UNL     1      29.202  15.302  -6.207  1.00  0.00     0.012 C
ATOM     26  C   UNL     1      29.538  14.038  -5.454  1.00  0.00     0.009 C
ATOM     27  G   UNL     1      29.203  13.901  -3.996  1.00  0.00     0.000 C
ENDBRANCH  15  24
ENDBRANCH  12  15
ENDBRANCH   1  11
BRANCH   7  28
ATOM     28  C   UNL     1      31.524   9.864  -3.622  1.00  0.00     0.027 C
ATOM     29  C   UNL     1      31.720   8.374  -3.893  1.00  0.00     0.016 C
ATOM     30  C   UNL     1      30.965   8.810  -2.674  1.00  0.00     0.016 C
BRANCH  28  31
ATOM     31  C   UNL     1      30.523  10.591  -4.531  1.00  0.00     0.094 C
BRANCH  31  32
ATOM     32  N   UNL     1      29.125  10.210  -4.283  1.00  0.00    -0.315 NA
ATOM     33  H   UNL     1      28.715  10.856  -3.611  1.00  0.00     0.122 HD
BRANCH  32  34
ATOM     34  C   UNL     1      28.274  10.179  -5.473  1.00  0.00     0.085 C
ATOM     35  G   UNL     1      27.364   8.984  -5.479  1.00  0.00     0.000 C
ENDBRANCH  32  34
ENDBRANCH  31  32
ENDBRANCH  28  31
ENDBRANCH   7  28
TORSDOF 1
ENDMDL
MODEL 7
REMARK VINA RESULT:      -8.0      1.850      4.528
REMARK SMILES N#CC1CN(C(=O)[C@@H]2NC(=O)c3c[nH]c4ncc(nc34)C3(CC3)CNC[C@H]3C[C@H]32)C1
REMARK SMILES IDX 12 1 13 2 14 3 15 4 16 5 17 6 18 7 19 8 20 9 10 11 9 12
REMARK SMILES IDX 11 13 8 15 6 16 1 17 2 18 3 19 4 20 30 21 5 22 7 23 29 24
REMARK SMILES IDX 28 25 27 26 21 28 22 29 23 30 24 31 25 32 26 34
REMARK H PARENT 14 10 9 14 25 33
REMARK Flexibility Score:   64.900
ROOT
ATOM      1  C   UNL     1      30.747   9.820  -3.976  1.00  0.00     0.085 A
ATOM      2  C   UNL     1      30.502   8.453  -3.994  1.00  0.00     0.100 A
ATOM      3  N   UNL     1      31.549   7.814  -3.368  1.00  0.00    -0.344 N
ATOM      4  C   UNL     1      32.481   8.737  -2.981  1.00  0.00     0.156 A
ATOM      5  N   UNL     1      33.669   8.491  -2.398  1.00  0.00    -0.235 NA
ATOM      6  C   UNL     1      34.357   9.658  -2.209  1.00  0.00     0.138 A
ATOM      7  C   UNL     1      33.916  10.954  -2.535  1.00  0.00     0.067 A
ATOM      8  N   UNL     1      32.689  11.119  -3.079  1.00  0.00    -0.246 NA
ATOM      9  C   UNL     1      31.991   9.985  -3.322  1.00  0.00     0.120 A
ATOM     10  H   UNL     1      31.653   6.817  -3.241  1.00  0.00     0.168 HD
ENDROOT
BRANCH   1  11
ATOM     11  C   UNL     1      29.929  10.859  -4.583  1.00  0.00     0.255 C
ATOM     12  N   UNL     1      30.043  12.092  -3.982  1.00  0.00    -0.340 N
ATOM     13  O   UNL     1      29.235  10.660  -5.575  1.00  0.00    -0.269 OA
ATOM     14  H   UNL     1      30.644  12.177  -3.167  1.00  0.00     0.164 HD
BRANCH  12  15
ATOM     15  C   UNL     1      29.563  13.294  -4.626  1.00  0.00     0.175 C
BRANCH  15  16
ATOM     16  C   UNL     1      30.733  13.965  -5.398  1.00  0.00     0.245 C
ATOM     17  N   UNL     1      31.525  19.518  -4.603  1.00  0.00    -0.198 NA
ATOM     18  C   UNL     1      31.152  18.545  -5.117  1.00  0.00     0.069 C
ATOM     19  C   UNL     1      30.674  17.351  -5.768  1.00  0.00     0.131 C
ATOM     20  C   UNL     1      29.903  16.365  -4.868  1.00  0.00     0.140 C
ATOM     21  C   UNL     1      31.718  16.241  -5.979  1.00  0.00     0.140 C
ATOM     22  N   UNL     1      30.715  15.328  -5.465  1.00  0.00    -0.338 N
ATOM     23  O   UNL     1      31.631  13.308  -5.932  1.00  0.00    -0.272 OA
ENDBRANCH  15  16
BRANCH  15  24
ATOM     24  C   UNL     1      28.439  12.951  -5.584  1.00  0.00     0.026 C
ATOM     25  C   UNL     1      28.142  13.911  -6.708  1.00  0.00     0.012 C
ATOM     26  C   UNL     1      27.070  13.628  -5.683  1.00  0.00     0.009 C
ATOM     27  G   UNL     1      26.595  14.706  -4.751  1.00  0.00     0.000 C
ENDBRANCH  15  24
ENDBRANCH  12  15
ENDBRANCH   1  11
BRANCH   7  28
ATOM     28  C   UNL     1      34.759  12.230  -2.324  1.00  0.00     0.027 C
ATOM     29  C   UNL     1      35.641  12.317  -1.081  1.00  0.00     0.016 C
ATOM     30  C   UNL     1      36.278  12.156  -2.428  1.00  0.00     0.016 C
BRANCH  28  31
ATOM     31  C   UNL     1      34.089  13.536  -2.771  1.00  0.00     0.094 C
BRANCH  31  32
ATOM     32  N   UNL     1      32.878  13.864  -2.005  1.00  0.00    -0.315 NA
ATOM     33  H   UNL     1      33.095  13.849  -1.011  1.00  0.00     0.122 HD
BRANCH  32  34
ATOM     34  C   UNL     1      32.276  15.160  -2.328  1.00  0.00     0.085 C
ATOM     35  G   UNL     1      31.043  15.421  -1.512  1.00  0.00     0.000 C
ENDBRANCH  32  34
ENDBRANCH  31  32
ENDBRANCH  28  31
ENDBRANCH   7  28
TORSDOF 1
ENDMDL
MODEL 8
REMARK VINA RESULT:      -8.0      1.944      2.907
REMARK SMILES N#CC1CN(C(=O)[C@@H]2NC(=O)c3c[nH]c4ncc(nc34)C3(CC3)CNC[C@H]3C[C@H]32)C1
REMARK SMILES IDX 12 1 13 2 14 3 15 4 16 5 17 6 18 7 19 8 20 9 10 11 9 12
REMARK SMILES IDX 11 13 8 15 6 16 1 17 2 18 3 19 4 20 30 21 5 22 7 23 29 24
REMARK SMILES IDX 28 25 27 26 21 28 22 29 23 30 24 31 25 32 26 34
REMARK H PARENT 14 10 9 14 25 33
REMARK Flexibility Score:   64.900
ROOT
ATOM      1  C   UNL     1      33.368  14.678  -2.995  1.00  0.00     0.085 A
ATOM      2  C   UNL     1      34.598  15.196  -2.611  1.00  0.00     0.100 A
ATOM      3  N   UNL     1      35.469  14.150  -2.408  1.00  0.00    -0.344 N
ATOM      4  C   UNL     1      34.817  12.966  -2.615  1.00  0.00     0.156 A
ATOM      5  N   UNL     1      35.316  11.727  -2.451  1.00  0.00    -0.235 NA
ATOM      6  C   UNL     1      34.353  10.789  -2.698  1.00  0.00     0.138 A
ATOM      7  C   UNL     1      33.025  11.034  -3.096  1.00  0.00     0.067 A
ATOM      8  N   UNL     1      32.614  12.308  -3.282  1.00  0.00    -0.246 NA
ATOM      9  C   UNL     1      33.525  13.271  -3.007  1.00  0.00     0.120 A
ATOM     10  H   UNL     1      36.432  14.220  -2.110  1.00  0.00     0.168 HD
ENDROOT
BRANCH   1  11
ATOM     11  C   UNL     1      32.148  15.428  -3.249  1.00  0.00     0.255 C
ATOM     12  N   UNL     1      31.763  15.451  -4.571  1.00  0.00    -0.340 N
ATOM     13  O   UNL     1      31.494  15.952  -2.353  1.00  0.00    -0.269 OA
ATOM     14  H   UNL     1      32.356  14.987  -5.253  1.00  0.00     0.164 HD
BRANCH  12  15
ATOM     15  C   UNL     1      30.436  15.867  -4.965  1.00  0.00     0.175 C
BRANCH  15  16
ATOM     16  C   UNL     1      30.546  16.979  -6.045  1.00  0.00     0.245 C
ATOM     17  N   UNL     1      33.995  21.336  -4.948  1.00  0.00    -0.198 NA
ATOM     18  C   UNL     1      33.001  20.741  -5.021  1.00  0.00     0.069 C
ATOM     19  C   UNL     1      31.756  20.019  -5.097  1.00  0.00     0.131 C
ATOM     20  C   UNL     1      31.755  18.623  -4.443  1.00  0.00     0.140 C
ATOM     21  C   UNL     1      31.468  19.320  -6.437  1.00  0.00     0.140 C
ATOM     22  N   UNL     1      31.102  18.161  -5.648  1.00  0.00    -0.338 N
ATOM     23  O   UNL     1      30.148  16.814  -7.201  1.00  0.00    -0.272 OA
ENDBRANCH  15  16
BRANCH  15  24
ATOM     24  C   UNL     1      29.668  14.682  -5.516  1.00  0.00     0.026 C
ATOM     25  C   UNL     1      28.183  14.612  -5.260  1.00  0.00     0.012 C
ATOM     26  C   UNL     1      29.072  13.516  -4.723  1.00  0.00     0.009 C
ATOM     27  G   UNL     1      29.250  13.326  -3.244  1.00  0.00     0.000 C
ENDBRANCH  15  24
ENDBRANCH  12  15
ENDBRANCH   1  11
BRANCH   7  28
ATOM     28  C   UNL     1      31.976   9.926  -3.327  1.00  0.00     0.027 C
ATOM     29  C   UNL     1      32.410   8.471  -3.158  1.00  0.00     0.016 C
ATOM     30  C   UNL     1      31.491   9.089  -2.149  1.00  0.00     0.016 C
BRANCH  28  31
ATOM     31  C   UNL     1      30.968  10.204  -4.451  1.00  0.00     0.094 C
BRANCH  31  32
ATOM     32  N   UNL     1      29.594   9.807  -4.115  1.00  0.00    -0.315 NA
ATOM     33  H   UNL     1      29.144  10.559  -3.596  1.00  0.00     0.122 HD
BRANCH  32  34
ATOM     34  C   UNL     1      28.751   9.471  -5.264  1.00  0.00     0.085 C
ATOM     35  G   UNL     1      27.571  10.394  -5.381  1.00  0.00     0.000 C
ENDBRANCH  32  34
ENDBRANCH  31  32
ENDBRANCH  28  31
ENDBRANCH   7  28
TORSDOF 1
ENDMDL
MODEL 9
REMARK VINA RESULT:      -8.0      1.716      2.566
REMARK SMILES N#CC1CN(C(=O)[C@@H]2NC(=O)c3c[nH]c4ncc(nc34)C3(CC3)CNC[C@H]3C[C@H]32)C1
REMARK SMILES IDX 12 1 13 2 14 3 15 4 16 5 17 6 18 7 19 8 20 9 10 11 9 12
REMARK SMILES IDX 11 13 8 15 6 16 1 17 2 18 3 19 4 20 30 21 5 22 7 23 29 24
REMARK SMILES IDX 28 25 27 26 21 28 22 29 23 30 24 31 25 32 26 34
REMARK H PARENT 14 10 9 14 25 33
REMARK Flexibility Score:   64.900
ROOT
ATOM      1  C   UNL     1      33.573  13.444  -3.240  1.00  0.00     0.085 A
ATOM      2  C   UNL     1      34.703  13.162  -2.483  1.00  0.00     0.100 A
ATOM      3  N   UNL     1      34.765  11.801  -2.281  1.00  0.00    -0.344 N
ATOM      4  C   UNL     1      33.678  11.204  -2.859  1.00  0.00     0.156 A
ATOM      5  N   UNL     1      33.356   9.898  -2.819  1.00  0.00    -0.235 NA
ATOM      6  C   UNL     1      32.169   9.681  -3.461  1.00  0.00     0.138 A
ATOM      7  C   UNL     1      31.376  10.646  -4.110  1.00  0.00     0.067 A
ATOM      8  N   UNL     1      31.793  11.932  -4.142  1.00  0.00    -0.246 NA
ATOM      9  C   UNL     1      32.945  12.198  -3.481  1.00  0.00     0.120 A
ATOM     10  H   UNL     1      35.469  11.304  -1.755  1.00  0.00     0.168 HD
ENDROOT
BRANCH   1  11
ATOM     11  C   UNL     1      33.093  14.760  -3.630  1.00  0.00     0.255 C
ATOM     12  N   UNL     1      32.785  14.878  -4.967  1.00  0.00    -0.340 N
ATOM     13  O   UNL     1      32.931  15.671  -2.824  1.00  0.00    -0.269 OA
ATOM     14  H   UNL     1      32.941  14.074  -5.569  1.00  0.00     0.164 HD
BRANCH  12  15
ATOM     15  C   UNL     1      32.009  15.988  -5.470  1.00  0.00     0.175 C
BRANCH  15  16
ATOM     16  C   UNL     1      32.897  16.852  -6.408  1.00  0.00     0.245 C
ATOM     17  N   UNL     1      34.209  22.078  -4.661  1.00  0.00    -0.198 NA
ATOM     18  C   UNL     1      33.636  21.246  -5.232  1.00  0.00     0.069 C
ATOM     19  C   UNL     1      32.907  20.227  -5.945  1.00  0.00     0.131 C
ATOM     20  C   UNL     1      32.419  19.038  -5.095  1.00  0.00     0.140 C
ATOM     21  C   UNL     1      33.761  19.225  -6.740  1.00  0.00     0.140 C
ATOM     22  N   UNL     1      32.933  18.192  -6.149  1.00  0.00    -0.338 N
ATOM     23  O   UNL     1      33.534  16.363  -7.345  1.00  0.00    -0.272 OA
ENDBRANCH  15  16
BRANCH  15  24
ATOM     24  C   UNL     1      30.803  15.472  -6.228  1.00  0.00     0.026 C
ATOM     25  C   UNL     1      29.579  16.350  -6.305  1.00  0.00     0.012 C
ATOM     26  C   UNL     1      29.471  15.001  -5.637  1.00  0.00     0.009 C
ATOM     27  G   UNL     1      29.195  14.892  -4.165  1.00  0.00     0.000 C
ENDBRANCH  15  24
ENDBRANCH  12  15
ENDBRANCH   1  11
BRANCH   7  28
ATOM     28  C   UNL     1      30.026  10.338  -4.790  1.00  0.00     0.027 C
ATOM     29  C   UNL     1      28.755  10.921  -4.174  1.00  0.00     0.016 C
ATOM     30  C   UNL     1      29.256  11.458  -5.480  1.00  0.00     0.016 C
BRANCH  28  31
ATOM     31  C   UNL     1      29.902   8.930  -5.389  1.00  0.00     0.094 C
BRANCH  31  32
ATOM     32  N   UNL     1      29.381   8.923  -6.763  1.00  0.00    -0.315 NA
ATOM     33  H   UNL     1      30.155   8.814  -7.415  1.00  0.00     0.122 HD
BRANCH  32  34
ATOM     34  C   UNL     1      28.391   7.881  -7.042  1.00  0.00     0.085 C
ATOM     35  G   UNL     1      28.986   6.505  -6.948  1.00  0.00     0.000 C
ENDBRANCH  32  34
ENDBRANCH  31  32
ENDBRANCH  28  31
ENDBRANCH   7  28
TORSDOF 1
ENDMDL
