MODEL 1
REMARK VINA RESULT:      -8.4      0.000      0.000
REMARK SMILES N#C[C@@H]1CCN(C(=O)[C@@H]2NC(=O)c3c[nH]c4ncc(nc34)C3(CC3)CNC[C@@H]3C[C@H]32)C1
REMARK SMILES IDX 13 1 14 2 15 3 16 4 17 5 18 6 19 7 20 8 21 9 11 11 10 12
REMARK SMILES IDX 12 13 9 15 7 16 8 17 6 18 1 19 2 20 3 21 4 22 31 23 5 24
REMARK SMILES IDX 30 25 29 26 28 27 22 29 23 30 24 31 25 32 26 33 27 35
REMARK H PARENT 15 10 10 14 26 34
REMARK Flexibility Score:  106.900
ROOT
ATOM      1  C   UNL     1      33.868  12.977  -2.892  1.00  0.00     0.085 A
ATOM      2  C   UNL     1      35.097  12.943  -2.247  1.00  0.00     0.100 A
ATOM      3  N   UNL     1      35.426  11.630  -2.001  1.00  0.00    -0.344 N
ATOM      4  C   UNL     1      34.425  10.815  -2.449  1.00  0.00     0.156 A
ATOM      5  N   UNL     1      34.355   9.476  -2.330  1.00  0.00    -0.235 NA
ATOM      6  C   UNL     1      33.184   9.011  -2.864  1.00  0.00     0.138 A
ATOM      7  C   UNL     1      32.186   9.780  -3.485  1.00  0.00     0.067 A
ATOM      8  N   UNL     1      32.342  11.119  -3.588  1.00  0.00    -0.246 NA
ATOM      9  C   UNL     1      33.468  11.625  -3.037  1.00  0.00     0.120 A
ATOM     10  H   UNL     1      36.257  11.298  -1.531  1.00  0.00     0.168 HD
ENDROOT
BRANCH   1  11
ATOM     11  C   UNL     1      33.119  14.163  -3.280  1.00  0.00     0.255 C
ATOM     12  N   UNL     1      32.295  13.981  -4.362  1.00  0.00    -0.340 N
ATOM     13  O   UNL     1      33.185  15.220  -2.660  1.00  0.00    -0.269 OA
ATOM     14  H   UNL     1      32.297  13.081  -4.841  1.00  0.00     0.164 HD
BRANCH  12  15
ATOM     15  C   UNL     1      31.341  14.982  -4.785  1.00  0.00     0.175 C
BRANCH  15  16
ATOM     16  C   UNL     1      32.069  16.044  -5.657  1.00  0.00     0.245 C
ATOM     17  O   UNL     1      32.862  15.712  -6.545  1.00  0.00    -0.272 OA
BRANCH  16  18
ATOM     18  N   UNL     1      31.794  17.378  -5.427  1.00  0.00    -0.340 N
ATOM     19  N   UNL     1      34.148  20.762  -5.282  1.00  0.00    -0.198 NA
ATOM     20  C   UNL     1      33.120  20.279  -5.520  1.00  0.00     0.067 C
ATOM     21  C   UNL     1      31.795  19.719  -5.822  1.00  0.00     0.114 C
ATOM     22  C   UNL     1      31.009  19.408  -4.546  1.00  0.00     0.042 C
ATOM     23  C   UNL     1      31.901  18.355  -6.499  1.00  0.00     0.138 C
ATOM     24  C   UNL     1      31.473  18.008  -4.160  1.00  0.00     0.121 C
ENDBRANCH  16  18
ENDBRANCH  15  16
BRANCH  15  25
ATOM     25  C   UNL     1      30.242  14.298  -5.571  1.00  0.00     0.026 C
ATOM     26  C   UNL     1      29.186  15.108  -6.285  1.00  0.00     0.012 C
ATOM     27  C   UNL     1      28.802  14.292  -5.076  1.00  0.00     0.009 C
ATOM     28  G   UNL     1      27.958  13.063  -5.234  1.00  0.00     0.000 C
ENDBRANCH  15  25
ENDBRANCH  12  15
ENDBRANCH   1  11
BRANCH   7  29
ATOM     29  C   UNL     1      30.872   9.206  -4.042  1.00  0.00     0.027 C
ATOM     30  C   UNL     1      29.640  10.107  -3.975  1.00  0.00     0.016 C
ATOM     31  C   UNL     1      30.232   9.774  -5.306  1.00  0.00     0.016 C
BRANCH  29  32
ATOM     32  C   UNL     1      30.694   7.703  -3.783  1.00  0.00     0.094 C
BRANCH  32  33
ATOM     33  N   UNL     1      30.788   6.946  -5.036  1.00  0.00    -0.315 NA
ATOM     34  H   UNL     1      31.372   6.129  -4.883  1.00  0.00     0.122 HD
BRANCH  33  35
ATOM     35  C   UNL     1      29.486   6.519  -5.535  1.00  0.00     0.085 C
ATOM     36  G   UNL     1      29.030   5.321  -4.756  1.00  0.00     0.000 C
ENDBRANCH  33  35
ENDBRANCH  32  33
ENDBRANCH  29  32
ENDBRANCH   7  29
TORSDOF 2
ENDMDL
MODEL 2
REMARK VINA RESULT:      -8.3      1.815      2.895
REMARK SMILES N#C[C@@H]1CCN(C(=O)[C@@H]2NC(=O)c3c[nH]c4ncc(nc34)C3(CC3)CNC[C@@H]3C[C@H]32)C1
REMARK SMILES IDX 13 1 14 2 15 3 16 4 17 5 18 6 19 7 20 8 21 9 11 11 10 12
REMARK SMILES IDX 12 13 9 15 7 16 8 17 6 18 1 19 2 20 3 21 4 22 31 23 5 24
REMARK SMILES IDX 30 25 29 26 28 27 22 29 23 30 24 31 25 32 26 33 27 35
REMARK H PARENT 15 10 10 14 26 34
REMARK Flexibility Score:  106.900
ROOT
ATOM      1  C   UNL     1      33.740  14.311  -2.904  1.00  0.00     0.085 A
ATOM      2  C   UNL     1      35.003  14.626  -2.419  1.00  0.00     0.100 A
ATOM      3  N   UNL     1      35.678  13.454  -2.163  1.00  0.00    -0.344 N
ATOM      4  C   UNL     1      34.871  12.390  -2.448  1.00  0.00     0.156 A
ATOM      5  N   UNL     1      35.156  11.086  -2.268  1.00  0.00    -0.235 NA
ATOM      6  C   UNL     1      34.088  10.311  -2.630  1.00  0.00     0.138 A
ATOM      7  C   UNL     1      32.865  10.766  -3.150  1.00  0.00     0.067 A
ATOM      8  N   UNL     1      32.665  12.091  -3.326  1.00  0.00    -0.246 NA
ATOM      9  C   UNL     1      33.682  12.896  -2.943  1.00  0.00     0.120 A
ATOM     10  H   UNL     1      36.614  13.371  -1.790  1.00  0.00     0.168 HD
ENDROOT
BRANCH   1  11
ATOM     11  C   UNL     1      32.677  15.247  -3.241  1.00  0.00     0.255 C
ATOM     12  N   UNL     1      33.077  16.290  -4.039  1.00  0.00    -0.340 N
ATOM     13  O   UNL     1      31.515  15.087  -2.881  1.00  0.00    -0.269 OA
ATOM     14  H   UNL     1      34.061  16.372  -4.291  1.00  0.00     0.164 HD
BRANCH  12  15
ATOM     15  C   UNL     1      32.137  17.218  -4.625  1.00  0.00     0.175 C
BRANCH  15  16
ATOM     16  C   UNL     1      32.916  18.268  -5.468  1.00  0.00     0.245 C
ATOM     17  O   UNL     1      33.866  17.939  -6.187  1.00  0.00    -0.272 OA
BRANCH  16  18
ATOM     18  N   UNL     1      32.508  19.587  -5.406  1.00  0.00    -0.340 N
ATOM     19  N   UNL     1      29.145  21.569  -6.739  1.00  0.00    -0.198 NA
ATOM     20  C   UNL     1      30.000  21.481  -5.959  1.00  0.00     0.067 C
ATOM     21  C   UNL     1      31.070  21.420  -4.952  1.00  0.00     0.114 C
ATOM     22  C   UNL     1      32.401  21.930  -5.513  1.00  0.00     0.042 C
ATOM     23  C   UNL     1      31.393  19.982  -4.559  1.00  0.00     0.138 C
ATOM     24  C   UNL     1      33.011  20.705  -6.182  1.00  0.00     0.121 C
ENDBRANCH  16  18
ENDBRANCH  15  16
BRANCH  15  25
ATOM     25  C   UNL     1      31.170  16.440  -5.492  1.00  0.00     0.026 C
ATOM     26  C   UNL     1      30.492  17.096  -6.672  1.00  0.00     0.012 C
ATOM     27  C   UNL     1      29.674  16.723  -5.460  1.00  0.00     0.009 C
ATOM     28  G   UNL     1      28.693  15.591  -5.532  1.00  0.00     0.000 C
ENDBRANCH  15  25
ENDBRANCH  12  15
ENDBRANCH   1  11
BRANCH   7  29
ATOM     29  C   UNL     1      31.684   9.848  -3.513  1.00  0.00     0.027 C
ATOM     30  C   UNL     1      31.964   8.346  -3.555  1.00  0.00     0.016 C
ATOM     31  C   UNL     1      31.077   8.896  -2.485  1.00  0.00     0.016 C
BRANCH  29  32
ATOM     32  C   UNL     1      30.733  10.445  -4.560  1.00  0.00     0.094 C
BRANCH  32  33
ATOM     33  N   UNL     1      29.506  10.937  -3.925  1.00  0.00    -0.315 NA
ATOM     34  H   UNL     1      29.685  11.086  -2.936  1.00  0.00     0.122 HD
BRANCH  33  35
ATOM     35  C   UNL     1      29.024  12.179  -4.518  1.00  0.00     0.085 C
ATOM     36  G   UNL     1      27.830  11.883  -5.376  1.00  0.00     0.000 C
ENDBRANCH  33  35
ENDBRANCH  32  33
ENDBRANCH  29  32
ENDBRANCH   7  29
TORSDOF 2
ENDMDL
MODEL 3
REMARK VINA RESULT:      -8.2      1.784      2.500
REMARK SMILES N#C[C@@H]1CCN(C(=O)[C@@H]2NC(=O)c3c[nH]c4ncc(nc34)C3(CC3)CNC[C@@H]3C[C@H]32)C1
REMARK SMILES IDX 13 1 14 2 15 3 16 4 17 5 18 6 19 7 20 8 21 9 11 11 10 12
REMARK SMILES IDX 12 13 9 15 7 16 8 17 6 18 1 19 2 20 3 21 4 22 31 23 5 24
REMARK SMILES IDX 30 25 29 26 28 27 22 29 23 30 24 31 25 32 26 33 27 35
REMARK H PARENT 15 10 10 14 26 34
REMARK Flexibility Score:  106.900
ROOT
ATOM      1  C   UNL     1      33.591  14.634  -3.092  1.00  0.00     0.085 A
ATOM      2  C   UNL     1      34.830  15.035  -2.608  1.00  0.00     0.100 A
ATOM      3  N   UNL     1      35.564  13.911  -2.302  1.00  0.00    -0.344 N
ATOM      4  C   UNL     1      34.817  12.795  -2.553  1.00  0.00     0.156 A
ATOM      5  N   UNL     1      35.169  11.515  -2.320  1.00  0.00    -0.235 NA
ATOM      6  C   UNL     1      34.147  10.672  -2.662  1.00  0.00     0.138 A
ATOM      7  C   UNL     1      32.907  11.041  -3.210  1.00  0.00     0.067 A
ATOM      8  N   UNL     1      32.639  12.346  -3.438  1.00  0.00    -0.246 NA
ATOM      9  C   UNL     1      33.608  13.218  -3.077  1.00  0.00     0.120 A
ATOM     10  H   UNL     1      36.498  13.892  -1.918  1.00  0.00     0.168 HD
ENDROOT
BRANCH   1  11
ATOM     11  C   UNL     1      32.484  15.499  -3.474  1.00  0.00     0.255 C
ATOM     12  N   UNL     1      32.598  16.039  -4.731  1.00  0.00    -0.340 N
ATOM     13  O   UNL     1      31.512  15.688  -2.750  1.00  0.00    -0.269 OA
ATOM     14  H   UNL     1      33.439  15.852  -5.276  1.00  0.00     0.164 HD
BRANCH  12  15
ATOM     15  C   UNL     1      31.522  16.773  -5.357  1.00  0.00     0.175 C
BRANCH  15  16
ATOM     16  C   UNL     1      32.123  17.874  -6.275  1.00  0.00     0.245 C
ATOM     17  O   UNL     1      32.757  17.585  -7.296  1.00  0.00    -0.272 OA
BRANCH  16  18
ATOM     18  N   UNL     1      31.917  19.196  -5.930  1.00  0.00    -0.340 N
ATOM     19  N   UNL     1      29.101  21.999  -7.040  1.00  0.00    -0.198 NA
ATOM     20  C   UNL     1      29.822  21.585  -6.230  1.00  0.00     0.067 C
ATOM     21  C   UNL     1      30.728  21.107  -5.175  1.00  0.00     0.114 C
ATOM     22  C   UNL     1      32.183  21.483  -5.468  1.00  0.00     0.042 C
ATOM     23  C   UNL     1      30.772  19.583  -5.118  1.00  0.00     0.138 C
ATOM     24  C   UNL     1      32.682  20.352  -6.359  1.00  0.00     0.121 C
ENDBRANCH  16  18
ENDBRANCH  15  16
BRANCH  15  25
ATOM     25  C   UNL     1      30.680  15.802  -6.158  1.00  0.00     0.026 C
ATOM     26  C   UNL     1      29.379  16.246  -6.786  1.00  0.00     0.012 C
ATOM     27  C   UNL     1      29.352  15.281  -5.626  1.00  0.00     0.009 C
ATOM     28  G   UNL     1      28.963  13.850  -5.845  1.00  0.00     0.000 C
ENDBRANCH  15  25
ENDBRANCH  12  15
ENDBRANCH   1  11
BRANCH   7  29
ATOM     29  C   UNL     1      31.781  10.048  -3.548  1.00  0.00     0.027 C
ATOM     30  C   UNL     1      32.147   8.565  -3.559  1.00  0.00     0.016 C
ATOM     31  C   UNL     1      31.233   9.086  -2.498  1.00  0.00     0.016 C
BRANCH  29  32
ATOM     32  C   UNL     1      30.793  10.567  -4.603  1.00  0.00     0.094 C
BRANCH  32  33
ATOM     33  N   UNL     1      29.430  10.114  -4.305  1.00  0.00    -0.315 NA
ATOM     34  H   UNL     1      28.903  10.893  -3.920  1.00  0.00     0.122 HD
BRANCH  33  35
ATOM     35  C   UNL     1      28.738   9.599  -5.480  1.00  0.00     0.085 C
ATOM     36  G   UNL     1      27.270   9.506  -5.184  1.00  0.00     0.000 C
ENDBRANCH  33  35
ENDBRANCH  32  33
ENDBRANCH  29  32
ENDBRANCH   7  29
TORSDOF 2
ENDMDL
MODEL 4
REMARK VINA RESULT:      -8.2      1.806      4.433
REMARK SMILES N#C[C@@H]1CCN(C(=O)[C@@H]2NC(=O)c3c[nH]c4ncc(nc34)C3(CC3)CNC[C@@H]3C[C@H]32)C1
REMARK SMILES IDX 13 1 14 2 15 3 16 4 17 5 18 6 19 7 20 8 21 9 11 11 10 12
REMARK SMILES IDX 12 13 9 15 7 16 8 17 6 18 1 19 2 20 3 21 4 22 31 23 5 24
REMARK SMILES IDX 30 25 29 26 28 27 22 29 23 30 24 31 25 32 26 33 27 35
REMARK H PARENT 15 10 10 14 26 34
REMARK Flexibility Score:  106.900
ROOT
ATOM      1  C   UNL     1      29.205  11.973  -4.791  1.00  0.00     0.085 A
ATOM      2  C   UNL     1      28.166  11.402  -5.515  1.00  0.00     0.100 A
ATOM      3  N   UNL     1      28.363  10.041  -5.561  1.00  0.00    -0.344 N
ATOM      4  C   UNL     1      29.519   9.723  -4.906  1.00  0.00     0.156 A
ATOM      5  N   UNL     1      30.076   8.502  -4.792  1.00  0.00    -0.235 NA
ATOM      6  C   UNL     1      31.253   8.579  -4.098  1.00  0.00     0.138 A
ATOM      7  C   UNL     1      31.818   9.738  -3.540  1.00  0.00     0.067 A
ATOM      8  N   UNL     1      31.184  10.923  -3.676  1.00  0.00    -0.246 NA
ATOM      9  C   UNL     1      30.036  10.899  -4.391  1.00  0.00     0.120 A
ATOM     10  H   UNL     1      27.775   9.366  -6.031  1.00  0.00     0.168 HD
ENDROOT
BRANCH   1  11
ATOM     11  C   UNL     1      29.423  13.393  -4.553  1.00  0.00     0.255 C
ATOM     12  N   UNL     1      29.865  14.087  -5.651  1.00  0.00    -0.340 N
ATOM     13  O   UNL     1      29.185  13.928  -3.474  1.00  0.00    -0.269 OA
ATOM     14  H   UNL     1      30.057  13.580  -6.514  1.00  0.00     0.164 HD
BRANCH  12  15
ATOM     15  C   UNL     1      29.966  15.529  -5.664  1.00  0.00     0.175 C
BRANCH  15  16
ATOM     16  C   UNL     1      31.453  15.934  -5.873  1.00  0.00     0.245 C
ATOM     17  O   UNL     1      32.299  15.110  -6.240  1.00  0.00    -0.272 OA
BRANCH  16  18
ATOM     18  N   UNL     1      31.808  17.251  -5.654  1.00  0.00    -0.340 N
ATOM     19  N   UNL     1      29.674  20.781  -5.604  1.00  0.00    -0.198 NA
ATOM     20  C   UNL     1      30.568  20.157  -5.205  1.00  0.00     0.067 C
ATOM     21  C   UNL     1      31.722  19.414  -4.678  1.00  0.00     0.114 C
ATOM     22  C   UNL     1      32.863  19.349  -5.697  1.00  0.00     0.042 C
ATOM     23  C   UNL     1      31.386  17.943  -4.445  1.00  0.00     0.138 C
ATOM     24  C   UNL     1      32.520  18.137  -6.555  1.00  0.00     0.121 C
ENDBRANCH  16  18
ENDBRANCH  15  16
BRANCH  15  25
ATOM     25  C   UNL     1      29.099  16.062  -6.785  1.00  0.00     0.026 C
ATOM     26  C   UNL     1      28.492  17.443  -6.702  1.00  0.00     0.012 C
ATOM     27  C   UNL     1      27.596  16.233  -6.610  1.00  0.00     0.009 C
ATOM     28  G   UNL     1      26.664  15.897  -7.735  1.00  0.00     0.000 C
ENDBRANCH  15  25
ENDBRANCH  12  15
ENDBRANCH   1  11
BRANCH   7  29
ATOM     29  C   UNL     1      33.164   9.770  -2.795  1.00  0.00     0.027 C
ATOM     30  C   UNL     1      33.165   9.279  -1.348  1.00  0.00     0.016 C
ATOM     31  C   UNL     1      33.878   8.483  -2.392  1.00  0.00     0.016 C
BRANCH  29  32
ATOM     32  C   UNL     1      34.046  10.973  -3.159  1.00  0.00     0.094 C
BRANCH  32  33
ATOM     33  N   UNL     1      33.534  12.199  -2.537  1.00  0.00    -0.315 NA
ATOM     34  H   UNL     1      34.172  12.485  -1.800  1.00  0.00     0.122 HD
BRANCH  33  35
ATOM     35  C   UNL     1      33.382  13.293  -3.490  1.00  0.00     0.085 C
ATOM     36  G   UNL     1      33.964  14.543  -2.901  1.00  0.00     0.000 C
ENDBRANCH  33  35
ENDBRANCH  32  33
ENDBRANCH  29  32
ENDBRANCH   7  29
TORSDOF 2
ENDMDL
MODEL 5
REMARK VINA RESULT:      -8.2      1.543      1.914
REMARK SMILES N#C[C@@H]1CCN(C(=O)[C@@H]2NC(=O)c3c[nH]c4ncc(nc34)C3(CC3)CNC[C@@H]3C[C@H]32)C1
REMARK SMILES IDX 13 1 14 2 15 3 16 4 17 5 18 6 19 7 20 8 21 9 11 11 10 12
REMARK SMILES IDX 12 13 9 15 7 16 8 17 6 18 1 19 2 20 3 21 4 22 31 23 5 24
REMARK SMILES IDX 30 25 29 26 28 27 22 29 23 30 24 31 25 32 26 33 27 35
REMARK H PARENT 15 10 10 14 26 34
REMARK Flexibility Score:  106.900
ROOT
ATOM      1  C   UNL     1      33.568  13.360  -3.176  1.00  0.00     0.085 A
ATOM      2  C   UNL     1      34.724  13.071  -2.462  1.00  0.00     0.100 A
ATOM      3  N   UNL     1      34.798  11.708  -2.284  1.00  0.00    -0.344 N
ATOM      4  C   UNL     1      33.703  11.113  -2.843  1.00  0.00     0.156 A
ATOM      5  N   UNL     1      33.390   9.804  -2.816  1.00  0.00    -0.235 NA
ATOM      6  C   UNL     1      32.195   9.587  -3.448  1.00  0.00     0.138 A
ATOM      7  C   UNL     1      31.395  10.556  -4.075  1.00  0.00     0.067 A
ATOM      8  N   UNL     1      31.791  11.848  -4.081  1.00  0.00    -0.246 NA
ATOM      9  C   UNL     1      32.948  12.113  -3.432  1.00  0.00     0.120 A
ATOM     10  H   UNL     1      35.523  11.208  -1.789  1.00  0.00     0.168 HD
ENDROOT
BRANCH   1  11
ATOM     11  C   UNL     1      33.070  14.682  -3.529  1.00  0.00     0.255 C
ATOM     12  N   UNL     1      32.245  14.699  -4.626  1.00  0.00    -0.340 N
ATOM     13  O   UNL     1      33.327  15.684  -2.870  1.00  0.00    -0.269 OA
ATOM     14  H   UNL     1      32.082  13.832  -5.137  1.00  0.00     0.164 HD
BRANCH  12  15
ATOM     15  C   UNL     1      31.510  15.879  -5.023  1.00  0.00     0.175 C
BRANCH  15  16
ATOM     16  C   UNL     1      32.444  16.807  -5.849  1.00  0.00     0.245 C
ATOM     17  O   UNL     1      33.147  16.363  -6.764  1.00  0.00    -0.272 OA
BRANCH  16  18
ATOM     18  N   UNL     1      32.460  18.155  -5.546  1.00  0.00    -0.340 N
ATOM     19  N   UNL     1      29.676  21.173  -5.951  1.00  0.00    -0.198 NA
ATOM     20  C   UNL     1      30.572  20.722  -5.366  1.00  0.00     0.067 C
ATOM     21  C   UNL     1      31.712  20.200  -4.599  1.00  0.00     0.114 C
ATOM     22  C   UNL     1      33.036  20.422  -5.335  1.00  0.00     0.042 C
ATOM     23  C   UNL     1      31.649  18.681  -4.458  1.00  0.00     0.138 C
ATOM     24  C   UNL     1      33.150  19.214  -6.257  1.00  0.00     0.121 C
ENDBRANCH  16  18
ENDBRANCH  15  16
BRANCH  15  25
ATOM     25  C   UNL     1      30.314  15.446  -5.844  1.00  0.00     0.026 C
ATOM     26  C   UNL     1      29.529  16.453  -6.652  1.00  0.00     0.012 C
ATOM     27  C   UNL     1      28.896  15.823  -5.436  1.00  0.00     0.009 C
ATOM     28  G   UNL     1      27.780  14.834  -5.594  1.00  0.00     0.000 C
ENDBRANCH  15  25
ENDBRANCH  12  15
ENDBRANCH   1  11
BRANCH   7  29
ATOM     29  C   UNL     1      30.042  10.259  -4.745  1.00  0.00     0.027 C
ATOM     30  C   UNL     1      28.800  10.867  -4.095  1.00  0.00     0.016 C
ATOM     31  C   UNL     1      29.241  11.360  -5.435  1.00  0.00     0.016 C
BRANCH  29  32
ATOM     32  C   UNL     1      29.941   8.846  -5.337  1.00  0.00     0.094 C
BRANCH  32  33
ATOM     33  N   UNL     1      29.433   8.895  -6.712  1.00  0.00    -0.315 NA
ATOM     34  H   UNL     1      30.123   8.480  -7.332  1.00  0.00     0.122 HD
BRANCH  33  35
ATOM     35  C   UNL     1      28.164   8.193  -6.869  1.00  0.00     0.085 C
ATOM     36  G   UNL     1      27.431   8.761  -8.048  1.00  0.00     0.000 C
ENDBRANCH  33  35
ENDBRANCH  32  33
ENDBRANCH  29  32
ENDBRANCH   7  29
TORSDOF 2
ENDMDL
MODEL 6
REMARK VINA RESULT:      -8.0      0.896      1.097
REMARK SMILES N#C[C@@H]1CCN(C(=O)[C@@H]2NC(=O)c3c[nH]c4ncc(nc34)C3(CC3)CNC[C@@H]3C[C@H]32)C1
REMARK SMILES IDX 13 1 14 2 15 3 16 4 17 5 18 6 19 7 20 8 21 9 11 11 10 12
REMARK SMILES IDX 12 13 9 15 7 16 8 17 6 18 1 19 2 20 3 21 4 22 31 23 5 24
REMARK SMILES IDX 30 25 29 26 28 27 22 29 23 30 24 31 25 32 26 33 27 35
REMARK H PARENT 15 10 10 14 26 34
REMARK Flexibility Score:  106.900
ROOT
ATOM      1  C   UNL     1      34.256  12.867  -2.606  1.00  0.00     0.085 A
ATOM      2  C   UNL     1      35.408  12.650  -1.861  1.00  0.00     0.100 A
ATOM      3  N   UNL     1      35.538  11.298  -1.640  1.00  0.00    -0.344 N
ATOM      4  C   UNL     1      34.481  10.639  -2.202  1.00  0.00     0.156 A
ATOM      5  N   UNL     1      34.225   9.318  -2.141  1.00  0.00    -0.235 NA
ATOM      6  C   UNL     1      33.055   9.030  -2.789  1.00  0.00     0.138 A
ATOM      7  C   UNL     1      32.226   9.944  -3.462  1.00  0.00     0.067 A
ATOM      8  N   UNL     1      32.566  11.251  -3.500  1.00  0.00    -0.246 NA
ATOM      9  C   UNL     1      33.696  11.586  -2.836  1.00  0.00     0.120 A
ATOM     10  H   UNL     1      36.273  10.844  -1.115  1.00  0.00     0.168 HD
ENDROOT
BRANCH   1  11
ATOM     11  C   UNL     1      33.708  14.154  -3.009  1.00  0.00     0.255 C
ATOM     12  N   UNL     1      32.383  14.114  -3.368  1.00  0.00    -0.340 N
ATOM     13  O   UNL     1      34.363  15.191  -2.982  1.00  0.00    -0.269 OA
ATOM     14  H   UNL     1      31.900  13.217  -3.382  1.00  0.00     0.164 HD
BRANCH  12  15
ATOM     15  C   UNL     1      31.616  15.313  -3.623  1.00  0.00     0.175 C
BRANCH  15  16
ATOM     16  C   UNL     1      31.985  15.865  -5.029  1.00  0.00     0.245 C
ATOM     17  O   UNL     1      32.384  15.117  -5.929  1.00  0.00    -0.272 OA
BRANCH  16  18
ATOM     18  N   UNL     1      31.840  17.219  -5.257  1.00  0.00    -0.340 N
ATOM     19  N   UNL     1      34.462  20.185  -6.418  1.00  0.00    -0.198 NA
ATOM     20  C   UNL     1      33.381  19.762  -6.417  1.00  0.00     0.067 C
ATOM     21  C   UNL     1      31.994  19.275  -6.434  1.00  0.00     0.114 C
ATOM     22  C   UNL     1      31.302  19.499  -5.087  1.00  0.00     0.042 C
ATOM     23  C   UNL     1      31.930  17.760  -6.605  1.00  0.00     0.138 C
ATOM     24  C   UNL     1      31.684  18.271  -4.270  1.00  0.00     0.121 C
ENDBRANCH  16  18
ENDBRANCH  15  16
BRANCH  15  25
ATOM     25  C   UNL     1      30.144  14.966  -3.548  1.00  0.00     0.026 C
ATOM     26  C   UNL     1      29.698  13.585  -3.127  1.00  0.00     0.012 C
ATOM     27  C   UNL     1      29.501  14.024  -4.557  1.00  0.00     0.009 C
ATOM     28  G   UNL     1      28.123  14.305  -5.076  1.00  0.00     0.000 C
ENDBRANCH  15  25
ENDBRANCH  12  15
ENDBRANCH   1  11
BRANCH   7  29
ATOM     29  C   UNL     1      30.902   9.567  -4.149  1.00  0.00     0.027 C
ATOM     30  C   UNL     1      29.676  10.407  -3.795  1.00  0.00     0.016 C
ATOM     31  C   UNL     1      30.250  10.493  -5.172  1.00  0.00     0.016 C
BRANCH  29  32
ATOM     32  C   UNL     1      30.719   8.057  -4.357  1.00  0.00     0.094 C
BRANCH  32  33
ATOM     33  N   UNL     1      29.835   7.794  -5.498  1.00  0.00    -0.315 NA
ATOM     34  H   UNL     1      30.314   8.065  -6.353  1.00  0.00     0.122 HD
BRANCH  33  35
ATOM     35  C   UNL     1      29.440   6.394  -5.593  1.00  0.00     0.085 C
ATOM     36  G   UNL     1      28.927   6.120  -6.975  1.00  0.00     0.000 C
ENDBRANCH  33  35
ENDBRANCH  32  33
ENDBRANCH  29  32
ENDBRANCH   7  29
TORSDOF 2
ENDMDL
MODEL 7
REMARK VINA RESULT:      -8.0      2.278      3.311
REMARK SMILES N#C[C@@H]1CCN(C(=O)[C@@H]2NC(=O)c3c[nH]c4ncc(nc34)C3(CC3)CNC[C@@H]3C[C@H]32)C1
REMARK SMILES IDX 13 1 14 2 15 3 16 4 17 5 18 6 19 7 20 8 21 9 11 11 10 12
REMARK SMILES IDX 12 13 9 15 7 16 8 17 6 18 1 19 2 20 3 21 4 22 31 23 5 24
REMARK SMILES IDX 30 25 29 26 28 27 22 29 23 30 24 31 25 32 26 33 27 35
REMARK H PARENT 15 10 10 14 26 34
REMARK Flexibility Score:  106.900
ROOT
ATOM      1  C   UNL     1      32.084  10.555  -3.521  1.00  0.00     0.085 A
ATOM      2  C   UNL     1      32.937   9.881  -2.657  1.00  0.00     0.100 A
ATOM      3  N   UNL     1      32.678   8.532  -2.751  1.00  0.00    -0.344 N
ATOM      4  C   UNL     1      31.659   8.323  -3.636  1.00  0.00     0.156 A
ATOM      5  N   UNL     1      31.083   7.145  -3.945  1.00  0.00    -0.235 NA
ATOM      6  C   UNL     1      30.067   7.333  -4.843  1.00  0.00     0.138 A
ATOM      7  C   UNL     1      29.670   8.555  -5.410  1.00  0.00     0.067 A
ATOM      8  N   UNL     1      30.316   9.692  -5.068  1.00  0.00    -0.246 NA
ATOM      9  C   UNL     1      31.301   9.557  -4.152  1.00  0.00     0.120 A
ATOM     10  H   UNL     1      33.135   7.797  -2.229  1.00  0.00     0.168 HD
ENDROOT
BRANCH   1  11
ATOM     11  C   UNL     1      31.976  11.997  -3.691  1.00  0.00     0.255 C
ATOM     12  N   UNL     1      31.109  12.385  -4.682  1.00  0.00    -0.340 N
ATOM     13  O   UNL     1      32.574  12.795  -2.975  1.00  0.00    -0.269 OA
ATOM     14  H   UNL     1      30.653  11.671  -5.249  1.00  0.00     0.164 HD
BRANCH  12  15
ATOM     15  C   UNL     1      30.730  13.766  -4.881  1.00  0.00     0.175 C
BRANCH  15  16
ATOM     16  C   UNL     1      31.861  14.496  -5.660  1.00  0.00     0.245 C
ATOM     17  O   UNL     1      32.594  13.889  -6.449  1.00  0.00    -0.272 OA
BRANCH  16  18
ATOM     18  N   UNL     1      32.018  15.854  -5.462  1.00  0.00    -0.340 N
ATOM     19  N   UNL     1      29.351  18.974  -5.042  1.00  0.00    -0.198 NA
ATOM     20  C   UNL     1      30.384  18.510  -4.784  1.00  0.00     0.067 C
ATOM     21  C   UNL     1      31.707  17.972  -4.436  1.00  0.00     0.114 C
ATOM     22  C   UNL     1      32.691  18.100  -5.602  1.00  0.00     0.042 C
ATOM     23  C   UNL     1      31.657  16.467  -4.192  1.00  0.00     0.138 C
ATOM     24  C   UNL     1      32.440  16.846  -6.432  1.00  0.00     0.121 C
ENDBRANCH  16  18
ENDBRANCH  15  16
BRANCH  15  25
ATOM     25  C   UNL     1      29.430  13.801  -5.656  1.00  0.00     0.026 C
ATOM     26  C   UNL     1      28.860  15.111  -6.146  1.00  0.00     0.012 C
ATOM     27  C   UNL     1      28.157  14.365  -5.040  1.00  0.00     0.009 C
ATOM     28  G   UNL     1      26.838  13.701  -5.298  1.00  0.00     0.000 C
ENDBRANCH  15  25
ENDBRANCH  12  15
ENDBRANCH   1  11
BRANCH   7  29
ATOM     29  C   UNL     1      28.497   8.711  -6.394  1.00  0.00     0.027 C
ATOM     30  C   UNL     1      27.097   8.805  -5.791  1.00  0.00     0.016 C
ATOM     31  C   UNL     1      27.688  10.003  -6.462  1.00  0.00     0.016 C
BRANCH  29  32
ATOM     32  C   UNL     1      28.679   7.930  -7.704  1.00  0.00     0.094 C
BRANCH  32  33
ATOM     33  N   UNL     1      28.954   8.844  -8.818  1.00  0.00    -0.315 NA
ATOM     34  H   UNL     1      29.949   8.820  -9.024  1.00  0.00     0.122 HD
BRANCH  33  35
ATOM     35  C   UNL     1      28.206   8.505 -10.023  1.00  0.00     0.085 C
ATOM     36  G   UNL     1      26.938   9.304 -10.055  1.00  0.00     0.000 C
ENDBRANCH  33  35
ENDBRANCH  32  33
ENDBRANCH  29  32
ENDBRANCH   7  29
TORSDOF 2
ENDMDL
MODEL 8
REMARK VINA RESULT:      -8.0      1.521      2.237
REMARK SMILES N#C[C@@H]1CCN(C(=O)[C@@H]2NC(=O)c3c[nH]c4ncc(nc34)C3(CC3)CNC[C@@H]3C[C@H]32)C1
REMARK SMILES IDX 13 1 14 2 15 3 16 4 17 5 18 6 19 7 20 8 21 9 11 11 10 12
REMARK SMILES IDX 12 13 9 15 7 16 8 17 6 18 1 19 2 20 3 21 4 22 31 23 5 24
REMARK SMILES IDX 30 25 29 26 28 27 22 29 23 30 24 31 25 32 26 33 27 35
REMARK H PARENT 15 10 10 14 26 34
REMARK Flexibility Score:  106.900
ROOT
ATOM      1  C   UNL     1      33.683  13.610  -2.879  1.00  0.00     0.085 A
ATOM      2  C   UNL     1      34.990  13.644  -2.408  1.00  0.00     0.100 A
ATOM      3  N   UNL     1      35.445  12.351  -2.286  1.00  0.00    -0.344 N
ATOM      4  C   UNL     1      34.453  11.482  -2.641  1.00  0.00     0.156 A
ATOM      5  N   UNL     1      34.498  10.136  -2.592  1.00  0.00    -0.235 NA
ATOM      6  C   UNL     1      33.301   9.605  -2.989  1.00  0.00     0.138 A
ATOM      7  C   UNL     1      32.173  10.321  -3.424  1.00  0.00     0.067 A
ATOM      8  N   UNL     1      32.215  11.671  -3.469  1.00  0.00    -0.246 NA
ATOM      9  C   UNL     1      33.368  12.240  -3.046  1.00  0.00     0.120 A
ATOM     10  H   UNL     1      36.355  12.065  -1.953  1.00  0.00     0.168 HD
ENDROOT
BRANCH   1  11
ATOM     11  C   UNL     1      32.803  14.750  -3.091  1.00  0.00     0.255 C
ATOM     12  N   UNL     1      32.780  15.210  -4.384  1.00  0.00    -0.340 N
ATOM     13  O   UNL     1      32.108  15.225  -2.200  1.00  0.00    -0.269 OA
ATOM     14  H   UNL     1      33.394  14.779  -5.075  1.00  0.00     0.164 HD
BRANCH  12  15
ATOM     15  C   UNL     1      31.839  16.212  -4.831  1.00  0.00     0.175 C
BRANCH  15  16
ATOM     16  C   UNL     1      32.542  17.154  -5.849  1.00  0.00     0.245 C
ATOM     17  O   UNL     1      33.100  16.709  -6.859  1.00  0.00    -0.272 OA
BRANCH  16  18
ATOM     18  N   UNL     1      32.514  18.514  -5.607  1.00  0.00    -0.340 N
ATOM     19  N   UNL     1      29.617  21.411  -6.086  1.00  0.00    -0.198 NA
ATOM     20  C   UNL     1      30.540  21.019  -5.501  1.00  0.00     0.067 C
ATOM     21  C   UNL     1      31.713  20.572  -4.736  1.00  0.00     0.114 C
ATOM     22  C   UNL     1      33.013  20.807  -5.510  1.00  0.00     0.042 C
ATOM     23  C   UNL     1      31.707  19.061  -4.527  1.00  0.00     0.138 C
ATOM     24  C   UNL     1      33.152  19.563  -6.380  1.00  0.00     0.121 C
ENDBRANCH  16  18
ENDBRANCH  15  16
BRANCH  15  25
ATOM     25  C   UNL     1      30.658  15.511  -5.470  1.00  0.00     0.026 C
ATOM     26  C   UNL     1      29.729  16.257  -6.398  1.00  0.00     0.012 C
ATOM     27  C   UNL     1      29.229  15.821  -5.043  1.00  0.00     0.009 C
ATOM     28  G   UNL     1      28.222  14.716  -4.931  1.00  0.00     0.000 C
ENDBRANCH  15  25
ENDBRANCH  12  15
ENDBRANCH   1  11
BRANCH   7  29
ATOM     29  C   UNL     1      30.840   9.670  -3.830  1.00  0.00     0.027 C
ATOM     30  C   UNL     1      30.898   8.591  -4.910  1.00  0.00     0.016 C
ATOM     31  C   UNL     1      30.543   8.207  -3.510  1.00  0.00     0.016 C
BRANCH  29  32
ATOM     32  C   UNL     1      29.650  10.641  -3.829  1.00  0.00     0.094 C
BRANCH  32  33
ATOM     33  N   UNL     1      29.575  11.371  -5.099  1.00  0.00    -0.315 NA
ATOM     34  H   UNL     1      30.316  11.041  -5.711  1.00  0.00     0.122 HD
BRANCH  33  35
ATOM     35  C   UNL     1      28.290  11.208  -5.768  1.00  0.00     0.085 C
ATOM     36  G   UNL     1      27.521  10.112  -5.093  1.00  0.00     0.000 C
ENDBRANCH  33  35
ENDBRANCH  32  33
ENDBRANCH  29  32
ENDBRANCH   7  29
TORSDOF 2
ENDMDL
MODEL 9
REMARK VINA RESULT:      -8.0      1.724      4.390
REMARK SMILES N#C[C@@H]1CCN(C(=O)[C@@H]2NC(=O)c3c[nH]c4ncc(nc34)C3(CC3)CNC[C@@H]3C[C@H]32)C1
REMARK SMILES IDX 13 1 14 2 15 3 16 4 17 5 18 6 19 7 20 8 21 9 11 11 10 12
REMARK SMILES IDX 12 13 9 15 7 16 8 17 6 18 1 19 2 20 3 21 4 22 31 23 5 24
REMARK SMILES IDX 30 25 29 26 28 27 22 29 23 30 24 31 25 32 26 33 27 35
REMARK H PARENT 15 10 10 14 26 34
REMARK Flexibility Score:  106.900
ROOT
ATOM      1  C   UNL     1      29.070  11.815  -4.870  1.00  0.00     0.085 A
ATOM      2  C   UNL     1      28.045  11.197  -5.576  1.00  0.00     0.100 A
ATOM      3  N   UNL     1      28.283   9.842  -5.595  1.00  0.00    -0.344 N
ATOM      4  C   UNL     1      29.451   9.573  -4.939  1.00  0.00     0.156 A
ATOM      5  N   UNL     1      30.046   8.372  -4.802  1.00  0.00    -0.235 NA
ATOM      6  C   UNL     1      31.223   8.500  -4.117  1.00  0.00     0.138 A
ATOM      7  C   UNL     1      31.756   9.686  -3.587  1.00  0.00     0.067 A
ATOM      8  N   UNL     1      31.086  10.849  -3.744  1.00  0.00    -0.246 NA
ATOM      9  C   UNL     1      29.935  10.775  -4.452  1.00  0.00     0.120 A
ATOM     10  H   UNL     1      27.713   9.140  -6.047  1.00  0.00     0.168 HD
ENDROOT
BRANCH   1  11
ATOM     11  C   UNL     1      29.246  13.245  -4.663  1.00  0.00     0.255 C
ATOM     12  N   UNL     1      29.430  13.964  -5.818  1.00  0.00    -0.340 N
ATOM     13  O   UNL     1      29.187  13.766  -3.553  1.00  0.00    -0.269 OA
ATOM     14  H   UNL     1      29.484  13.468  -6.707  1.00  0.00     0.164 HD
BRANCH  12  15
ATOM     15  C   UNL     1      29.443  15.409  -5.835  1.00  0.00     0.175 C
BRANCH  15  16
ATOM     16  C   UNL     1      30.916  15.906  -5.819  1.00  0.00     0.245 C
ATOM     17  O   UNL     1      31.854  15.147  -6.086  1.00  0.00    -0.272 OA
BRANCH  16  18
ATOM     18  N   UNL     1      31.154  17.232  -5.512  1.00  0.00    -0.340 N
ATOM     19  N   UNL     1      34.370  19.741  -6.128  1.00  0.00    -0.198 NA
ATOM     20  C   UNL     1      33.222  19.608  -6.023  1.00  0.00     0.067 C
ATOM     21  C   UNL     1      31.762  19.496  -5.886  1.00  0.00     0.114 C
ATOM     22  C   UNL     1      31.346  19.305  -4.425  1.00  0.00     0.042 C
ATOM     23  C   UNL     1      31.228  18.237  -6.562  1.00  0.00     0.138 C
ATOM     24  C   UNL     1      31.446  17.800  -4.209  1.00  0.00     0.121 C
ENDBRANCH  16  18
ENDBRANCH  15  16
BRANCH  15  25
ATOM     25  C   UNL     1      28.727  15.881  -7.084  1.00  0.00     0.026 C
ATOM     26  C   UNL     1      27.768  17.047  -7.028  1.00  0.00     0.012 C
ATOM     27  C   UNL     1      27.233  15.657  -7.271  1.00  0.00     0.009 C
ATOM     28  G   UNL     1      26.691  15.282  -8.618  1.00  0.00     0.000 C
ENDBRANCH  15  25
ENDBRANCH  12  15
ENDBRANCH   1  11
BRANCH   7  29
ATOM     29  C   UNL     1      33.104   9.775  -2.850  1.00  0.00     0.027 C
ATOM     30  C   UNL     1      33.138   9.269  -1.409  1.00  0.00     0.016 C
ATOM     31  C   UNL     1      33.881   8.519  -2.467  1.00  0.00     0.016 C
BRANCH  29  32
ATOM     32  C   UNL     1      33.925  11.023  -3.207  1.00  0.00     0.094 C
BRANCH  32  33
ATOM     33  N   UNL     1      33.287  12.233  -2.677  1.00  0.00    -0.315 NA
ATOM     34  H   UNL     1      33.063  12.083  -1.697  1.00  0.00     0.122 HD
BRANCH  33  35
ATOM     35  C   UNL     1      34.131  13.415  -2.801  1.00  0.00     0.085 C
ATOM     36  G   UNL     1      35.464  13.135  -2.173  1.00  0.00     0.000 C
ENDBRANCH  33  35
ENDBRANCH  32  33
ENDBRANCH  29  32
ENDBRANCH   7  29
TORSDOF 2
ENDMDL
