MODEL 1
REMARK VINA RESULT:      -8.1      0.000      0.000
REMARK SMILES NC(=O)c1cnc2c3c1[nH]c1cc(ccc13)-c1ccc(nn1)N1CCS(=O)(=O)[C@H](COCC3(CC3)[C@H](C(F)(F)F)N2)C1
REMARK SMILES IDX 4 1 5 2 6 3 7 4 8 5 9 6 10 7 11 8 12 9 13 10 14 11 15 12
REMARK SMILES IDX 16 13 2 15 1 16 3 17 41 20 36 22 33 23 34 24 35 25 37 27
REMARK SMILES IDX 38 28 39 29 40 30 17 31 18 32 22 33 19 34 21 35 20 36 23 37
REMARK SMILES IDX 24 38 42 39 25 40 29 41 26 42 27 43 28 44 30 45 31 46 32 47
REMARK H PARENT 10 14 1 18 1 19 41 21
REMARK Flexibility Score:   57.900
ROOT
ATOM      1  C   UNL     1      28.868   6.614  -6.736  1.00  0.00     0.082 A
ATOM      2  C   UNL     1      27.997   6.705  -7.813  1.00  0.00     0.129 A
ATOM      3  N   UNL     1      27.391   7.844  -8.243  1.00  0.00    -0.238 NA
ATOM      4  C   UNL     1      27.603   9.007  -7.581  1.00  0.00     0.136 A
ATOM      5  C   UNL     1      28.342   8.973  -6.376  1.00  0.00     0.051 A
ATOM      6  C   UNL     1      29.037   7.813  -6.039  1.00  0.00     0.065 A
ATOM      7  N   UNL     1      29.895   8.144  -5.007  1.00  0.00    -0.354 N
ATOM      8  C   UNL     1      29.811   9.490  -4.736  1.00  0.00     0.047 A
ATOM      9  C   UNL     1      30.675  10.359  -4.057  1.00  0.00     0.037 A
ATOM     10  C   UNL     1      30.357  11.733  -4.112  1.00  0.00     0.004 A
ATOM     11  C   UNL     1      29.046  12.117  -4.454  1.00  0.00     0.011 A
ATOM     12  C   UNL     1      28.186  11.229  -5.094  1.00  0.00     0.012 A
ATOM     13  C   UNL     1      28.665   9.944  -5.381  1.00  0.00     0.011 A
ATOM     14  H   UNL     1      30.588   7.502  -4.640  1.00  0.00     0.167 HD
ENDROOT
BRANCH   1  15
ATOM     15  C   UNL     1      29.607   5.398  -6.336  1.00  0.00     0.252 C
ATOM     16  N   UNL     1      30.280   4.691  -7.290  1.00  0.00    -0.365 N
ATOM     17  O   UNL     1      29.605   5.023  -5.167  1.00  0.00    -0.269 OA
ATOM     18  H   UNL     1      30.773   3.861  -6.980  1.00  0.00     0.159 HD
ATOM     19  H   UNL     1      30.297   4.898  -8.277  1.00  0.00     0.159 HD
ENDBRANCH   1  15
BRANCH   4  20
ATOM     20  N   UNL     1      27.186  10.162  -8.239  1.00  0.00    -0.358 N
ATOM     21  H   UNL     1      26.689  10.744  -7.569  1.00  0.00     0.162 HD
BRANCH  20  22
ATOM     22  C   UNL     1      26.465   9.992  -9.539  1.00  0.00     0.195 C
BRANCH  22  23
ATOM     23  C   UNL     1      27.126  10.870 -10.632  1.00  0.00     0.023 C
ATOM     24  C   UNL     1      28.321  10.343 -11.424  1.00  0.00     0.012 C
ATOM     25  C   UNL     1      27.003  10.492 -12.112  1.00  0.00     0.012 C
ATOM     26  G   UNL     1      27.101  12.360 -10.323  1.00  0.00     0.000 C
ENDBRANCH  22  23
BRANCH  22  27
ATOM     27  C   UNL     1      24.925  10.198  -9.438  1.00  0.00     0.409 C
ATOM     28  F   UNL     1      24.600  11.459  -9.067  1.00  0.00    -0.169 F
ATOM     29  F   UNL     1      24.357   9.353  -8.544  1.00  0.00    -0.169 F
ATOM     30  F   UNL     1      24.318   9.983 -10.633  1.00  0.00    -0.169 F
ENDBRANCH  22  27
ENDBRANCH  20  22
ENDBRANCH   4  20
BRANCH  10  31
ATOM     31  C   UNL     1      31.408  12.771  -4.223  1.00  0.00     0.093 A
ATOM     32  C   UNL     1      32.088  12.904  -5.430  1.00  0.00     0.035 A
ATOM     33  N   UNL     1      31.305  13.829  -3.388  1.00  0.00    -0.148 NA
ATOM     34  C   UNL     1      32.411  14.179  -5.871  1.00  0.00     0.051 A
ATOM     35  N   UNL     1      31.673  15.083  -3.818  1.00  0.00    -0.132 NA
ATOM     36  C   UNL     1      32.092  15.274  -5.084  1.00  0.00     0.151 A
BRANCH  36  37
ATOM     37  N   UNL     1      32.060  16.544  -5.641  1.00  0.00    -0.353 N
ATOM     38  C   UNL     1      32.397  17.677  -4.785  1.00  0.00     0.134 C
ATOM     39  C   UNL     1      31.166  16.762  -6.795  1.00  0.00     0.140 C
ATOM     40  C   UNL     1      31.166  18.287  -4.157  1.00  0.00     0.159 C
ATOM     41  C   UNL     1      29.798  17.335  -6.412  1.00  0.00     0.153 C
ATOM     42  S   UNL     1      30.064  18.815  -5.441  1.00  0.00     0.158 S
ATOM     43  O   UNL     1      28.813  19.202  -4.814  1.00  0.00    -0.228 OA
ATOM     44  O   UNL     1      30.768  19.778  -6.269  1.00  0.00    -0.228 OA
BRANCH  41  45
ATOM     45  C   UNL     1      28.842  16.373  -5.702  1.00  0.00     0.181 C
BRANCH  45  46
ATOM     46  O   UNL     1      28.228  15.453  -6.631  1.00  0.00    -0.379 OA
BRANCH  46  47
ATOM     47  C   UNL     1      26.815  15.373  -6.386  1.00  0.00     0.169 C
ATOM     48  G   UNL     1      26.527  15.138  -4.910  1.00  0.00     0.000 C
ENDBRANCH  46  47
ENDBRANCH  45  46
ENDBRANCH  41  45
ENDBRANCH  36  37
ENDBRANCH  10  31
TORSDOF 2
ENDMDL
MODEL 2
REMARK VINA RESULT:      -8.0      4.411     10.299
REMARK SMILES NC(=O)c1cnc2c3c1[nH]c1cc(ccc13)-c1ccc(nn1)N1CCS(=O)(=O)[C@H](COCC3(CC3)[C@H](C(F)(F)F)N2)C1
REMARK SMILES IDX 4 1 5 2 6 3 7 4 8 5 9 6 10 7 11 8 12 9 13 10 14 11 15 12
REMARK SMILES IDX 16 13 2 15 1 16 3 17 41 20 36 22 33 23 34 24 35 25 37 27
REMARK SMILES IDX 38 28 39 29 40 30 17 31 18 32 22 33 19 34 21 35 20 36 23 37
REMARK SMILES IDX 24 38 42 39 25 40 29 41 26 42 27 43 28 44 30 45 31 46 32 47
REMARK H PARENT 10 14 1 18 1 19 41 21
REMARK Flexibility Score:   57.900
ROOT
ATOM      1  C   UNL     1      27.223  19.162  -7.079  1.00  0.00     0.082 A
ATOM      2  C   UNL     1      28.019  19.737  -6.096  1.00  0.00     0.129 A
ATOM      3  N   UNL     1      28.536  19.087  -5.020  1.00  0.00    -0.238 NA
ATOM      4  C   UNL     1      28.257  17.774  -4.832  1.00  0.00     0.136 A
ATOM      5  C   UNL     1      27.322  17.152  -5.692  1.00  0.00     0.051 A
ATOM      6  C   UNL     1      26.910  17.821  -6.843  1.00  0.00     0.065 A
ATOM      7  N   UNL     1      26.256  16.895  -7.633  1.00  0.00    -0.354 N
ATOM      8  C   UNL     1      26.308  15.652  -7.046  1.00  0.00     0.047 A
ATOM      9  C   UNL     1      26.116  14.366  -7.569  1.00  0.00     0.037 A
ATOM     10  C   UNL     1      26.417  13.287  -6.710  1.00  0.00     0.004 A
ATOM     11  C   UNL     1      26.481  13.515  -5.323  1.00  0.00     0.011 A
ATOM     12  C   UNL     1      26.633  14.803  -4.817  1.00  0.00     0.012 A
ATOM     13  C   UNL     1      26.716  15.861  -5.733  1.00  0.00     0.011 A
ATOM     14  H   UNL     1      25.942  17.099  -8.576  1.00  0.00     0.167 HD
ENDROOT
BRANCH   1  15
ATOM     15  C   UNL     1      26.751  19.844  -8.302  1.00  0.00     0.252 C
ATOM     16  N   UNL     1      27.618  20.005  -9.344  1.00  0.00    -0.365 N
ATOM     17  O   UNL     1      25.602  20.270  -8.374  1.00  0.00    -0.269 OA
ATOM     18  H   UNL     1      27.261  20.479 -10.166  1.00  0.00     0.159 HD
ATOM     19  H   UNL     1      28.588  19.730  -9.354  1.00  0.00     0.159 HD
ENDBRANCH   1  15
BRANCH   4  20
ATOM     20  N   UNL     1      29.041  17.119  -3.885  1.00  0.00    -0.358 N
ATOM     21  H   UNL     1      29.232  17.773  -3.129  1.00  0.00     0.162 HD
BRANCH  20  22
ATOM     22  C   UNL     1      30.256  16.396  -4.376  1.00  0.00     0.195 C
BRANCH  22  23
ATOM     23  C   UNL     1      30.585  15.211  -3.433  1.00  0.00     0.023 C
ATOM     24  C   UNL     1      29.817  13.897  -3.550  1.00  0.00     0.012 C
ATOM     25  C   UNL     1      31.247  13.942  -3.982  1.00  0.00     0.012 C
ATOM     26  G   UNL     1      31.023  15.637  -2.038  1.00  0.00     0.000 C
ENDBRANCH  22  23
BRANCH  22  27
ATOM     27  C   UNL     1      31.477  17.324  -4.643  1.00  0.00     0.409 C
ATOM     28  F   UNL     1      31.539  18.354  -3.766  1.00  0.00    -0.169 F
ATOM     29  F   UNL     1      31.449  17.854  -5.890  1.00  0.00    -0.169 F
ATOM     30  F   UNL     1      32.647  16.648  -4.521  1.00  0.00    -0.169 F
ENDBRANCH  22  27
ENDBRANCH  20  22
ENDBRANCH   4  20
BRANCH  10  31
ATOM     31  C   UNL     1      27.053  12.047  -7.214  1.00  0.00     0.093 A
ATOM     32  C   UNL     1      27.593  11.155  -6.294  1.00  0.00     0.035 A
ATOM     33  N   UNL     1      26.641  11.602  -8.422  1.00  0.00    -0.148 NA
ATOM     34  C   UNL     1      27.449   9.794  -6.528  1.00  0.00     0.051 A
ATOM     35  N   UNL     1      26.547  10.251  -8.662  1.00  0.00    -0.132 NA
ATOM     36  C   UNL     1      26.819   9.364  -7.684  1.00  0.00     0.151 A
BRANCH  36  37
ATOM     37  N   UNL     1      26.338   8.066  -7.771  1.00  0.00    -0.353 N
ATOM     38  C   UNL     1      25.057   7.767  -7.138  1.00  0.00     0.134 C
ATOM     39  C   UNL     1      27.324   6.981  -7.935  1.00  0.00     0.140 C
ATOM     40  C   UNL     1      25.238   7.248  -5.730  1.00  0.00     0.159 C
ATOM     41  C   UNL     1      27.728   6.313  -6.616  1.00  0.00     0.153 C
ATOM     42  S   UNL     1      26.237   5.786  -5.777  1.00  0.00     0.158 S
ATOM     43  O   UNL     1      26.564   5.433  -4.407  1.00  0.00    -0.228 OA
ATOM     44  O   UNL     1      25.566   4.810  -6.618  1.00  0.00    -0.228 OA
BRANCH  41  45
ATOM     45  C   UNL     1      28.620   7.143  -5.689  1.00  0.00     0.181 C
BRANCH  45  46
ATOM     46  O   UNL     1      29.888   6.493  -5.451  1.00  0.00    -0.379 OA
BRANCH  46  47
ATOM     47  C   UNL     1      30.622   7.201  -4.439  1.00  0.00     0.169 C
ATOM     48  G   UNL     1      30.550   8.705  -4.659  1.00  0.00     0.000 C
ENDBRANCH  46  47
ENDBRANCH  45  46
ENDBRANCH  41  45
ENDBRANCH  36  37
ENDBRANCH  10  31
TORSDOF 2
ENDMDL
MODEL 3
REMARK VINA RESULT:      -7.8      4.413      7.667
REMARK SMILES NC(=O)c1cnc2c3c1[nH]c1cc(ccc13)-c1ccc(nn1)N1CCS(=O)(=O)[C@H](COCC3(CC3)[C@H](C(F)(F)F)N2)C1
REMARK SMILES IDX 4 1 5 2 6 3 7 4 8 5 9 6 10 7 11 8 12 9 13 10 14 11 15 12
REMARK SMILES IDX 16 13 2 15 1 16 3 17 41 20 36 22 33 23 34 24 35 25 37 27
REMARK SMILES IDX 38 28 39 29 40 30 17 31 18 32 22 33 19 34 21 35 20 36 23 37
REMARK SMILES IDX 24 38 42 39 25 40 29 41 26 42 27 43 28 44 30 45 31 46 32 47
REMARK H PARENT 10 14 1 18 1 19 41 21
REMARK Flexibility Score:   57.900
ROOT
ATOM      1  C   UNL     1      34.691  11.062  -1.966  1.00  0.00     0.082 A
ATOM      2  C   UNL     1      35.447  12.169  -1.603  1.00  0.00     0.129 A
ATOM      3  N   UNL     1      35.229  13.444  -2.022  1.00  0.00    -0.238 NA
ATOM      4  C   UNL     1      34.218  13.703  -2.886  1.00  0.00     0.136 A
ATOM      5  C   UNL     1      33.503  12.613  -3.435  1.00  0.00     0.051 A
ATOM      6  C   UNL     1      33.683  11.342  -2.892  1.00  0.00     0.065 A
ATOM      7  N   UNL     1      32.671  10.544  -3.393  1.00  0.00    -0.354 N
ATOM      8  C   UNL     1      31.822  11.293  -4.174  1.00  0.00     0.047 A
ATOM      9  C   UNL     1      30.511  11.062  -4.610  1.00  0.00     0.037 A
ATOM     10  C   UNL     1      29.869  12.134  -5.267  1.00  0.00     0.004 A
ATOM     11  C   UNL     1      30.652  13.172  -5.806  1.00  0.00     0.011 A
ATOM     12  C   UNL     1      31.966  13.365  -5.392  1.00  0.00     0.012 A
ATOM     13  C   UNL     1      32.483  12.491  -4.425  1.00  0.00     0.011 A
ATOM     14  H   UNL     1      32.512   9.594  -3.078  1.00  0.00     0.167 HD
ENDROOT
BRANCH   1  15
ATOM     15  C   UNL     1      34.864   9.696  -1.428  1.00  0.00     0.252 C
ATOM     16  N   UNL     1      35.520   9.533  -0.242  1.00  0.00    -0.365 N
ATOM     17  O   UNL     1      34.437   8.724  -2.045  1.00  0.00    -0.269 OA
ATOM     18  H   UNL     1      35.623   8.582   0.095  1.00  0.00     0.159 HD
ATOM     19  H   UNL     1      35.943  10.266   0.305  1.00  0.00     0.159 HD
ENDBRANCH   1  15
BRANCH   4  20
ATOM     20  N   UNL     1      33.883  15.046  -3.040  1.00  0.00    -0.358 N
ATOM     21  H   UNL     1      34.130  15.532  -2.181  1.00  0.00     0.162 HD
BRANCH  20  22
ATOM     22  C   UNL     1      32.505  15.361  -3.533  1.00  0.00     0.195 C
BRANCH  22  23
ATOM     23  C   UNL     1      32.539  16.625  -4.429  1.00  0.00     0.023 C
ATOM     24  C   UNL     1      33.833  17.044  -5.122  1.00  0.00     0.012 C
ATOM     25  C   UNL     1      32.712  16.498  -5.946  1.00  0.00     0.012 C
ATOM     26  G   UNL     1      31.613  17.738  -3.958  1.00  0.00     0.000 C
ENDBRANCH  22  23
BRANCH  22  27
ATOM     27  C   UNL     1      31.434  15.437  -2.406  1.00  0.00     0.409 C
ATOM     28  F   UNL     1      31.599  16.523  -1.615  1.00  0.00    -0.169 F
ATOM     29  F   UNL     1      31.460  14.344  -1.606  1.00  0.00    -0.169 F
ATOM     30  F   UNL     1      30.181  15.525  -2.921  1.00  0.00    -0.169 F
ENDBRANCH  22  27
ENDBRANCH  20  22
ENDBRANCH   4  20
BRANCH  10  31
ATOM     31  C   UNL     1      28.429  12.419  -5.066  1.00  0.00     0.093 A
ATOM     32  C   UNL     1      28.059  13.661  -4.562  1.00  0.00     0.035 A
ATOM     33  N   UNL     1      27.560  11.715  -5.827  1.00  0.00    -0.148 NA
ATOM     34  C   UNL     1      26.919  14.269  -5.069  1.00  0.00     0.051 A
ATOM     35  N   UNL     1      26.408  12.311  -6.286  1.00  0.00    -0.132 NA
ATOM     36  C   UNL     1      26.160  13.608  -6.021  1.00  0.00     0.151 A
BRANCH  36  37
ATOM     37  N   UNL     1      25.255  14.315  -6.800  1.00  0.00    -0.353 N
ATOM     38  C   UNL     1      24.352  13.556  -7.660  1.00  0.00     0.134 C
ATOM     39  C   UNL     1      25.614  15.695  -7.182  1.00  0.00     0.140 C
ATOM     40  C   UNL     1      24.913  13.394  -9.053  1.00  0.00     0.159 C
ATOM     41  C   UNL     1      26.268  15.800  -8.563  1.00  0.00     0.153 C
ATOM     42  S   UNL     1      25.197  14.998  -9.752  1.00  0.00     0.158 S
ATOM     43  O   UNL     1      25.922  14.813 -10.996  1.00  0.00    -0.228 OA
ATOM     44  O   UNL     1      23.931  15.710  -9.771  1.00  0.00    -0.228 OA
BRANCH  41  45
ATOM     45  C   UNL     1      27.702  15.272  -8.668  1.00  0.00     0.181 C
BRANCH  45  46
ATOM     46  O   UNL     1      28.670  16.316  -8.423  1.00  0.00    -0.379 OA
BRANCH  46  47
ATOM     47  C   UNL     1      29.163  16.225  -7.076  1.00  0.00     0.169 C
ATOM     48  G   UNL     1      28.804  17.470  -6.276  1.00  0.00     0.000 C
ENDBRANCH  46  47
ENDBRANCH  45  46
ENDBRANCH  41  45
ENDBRANCH  36  37
ENDBRANCH  10  31
TORSDOF 2
ENDMDL
MODEL 4
REMARK VINA RESULT:      -7.8      3.653      9.716
REMARK SMILES NC(=O)c1cnc2c3c1[nH]c1cc(ccc13)-c1ccc(nn1)N1CCS(=O)(=O)[C@H](COCC3(CC3)[C@H](C(F)(F)F)N2)C1
REMARK SMILES IDX 4 1 5 2 6 3 7 4 8 5 9 6 10 7 11 8 12 9 13 10 14 11 15 12
REMARK SMILES IDX 16 13 2 15 1 16 3 17 41 20 36 22 33 23 34 24 35 25 37 27
REMARK SMILES IDX 38 28 39 29 40 30 17 31 18 32 22 33 19 34 21 35 20 36 23 37
REMARK SMILES IDX 24 38 42 39 25 40 29 41 26 42 27 43 28 44 30 45 31 46 32 47
REMARK H PARENT 10 14 1 18 1 19 41 21
REMARK Flexibility Score:   57.900
ROOT
ATOM      1  C   UNL     1      31.395  18.909  -5.765  1.00  0.00     0.082 A
ATOM      2  C   UNL     1      32.616  18.366  -5.387  1.00  0.00     0.129 A
ATOM      3  N   UNL     1      32.859  17.046  -5.167  1.00  0.00    -0.238 NA
ATOM      4  C   UNL     1      31.850  16.150  -5.290  1.00  0.00     0.136 A
ATOM      5  C   UNL     1      30.539  16.634  -5.510  1.00  0.00     0.051 A
ATOM      6  C   UNL     1      30.359  17.976  -5.843  1.00  0.00     0.065 A
ATOM      7  N   UNL     1      29.058  18.107  -6.291  1.00  0.00    -0.354 N
ATOM      8  C   UNL     1      28.441  16.878  -6.318  1.00  0.00     0.047 A
ATOM      9  C   UNL     1      27.296  16.425  -6.987  1.00  0.00     0.037 A
ATOM     10  C   UNL     1      27.040  15.038  -6.926  1.00  0.00     0.004 A
ATOM     11  C   UNL     1      27.652  14.274  -5.915  1.00  0.00     0.011 A
ATOM     12  C   UNL     1      28.765  14.754  -5.231  1.00  0.00     0.012 A
ATOM     13  C   UNL     1      29.253  16.021  -5.581  1.00  0.00     0.011 A
ATOM     14  H   UNL     1      28.697  18.966  -6.690  1.00  0.00     0.167 HD
ENDROOT
BRANCH   1  15
ATOM     15  C   UNL     1      31.161  20.328  -6.106  1.00  0.00     0.252 C
ATOM     16  N   UNL     1      32.235  21.157  -6.254  1.00  0.00    -0.365 N
ATOM     17  O   UNL     1      30.018  20.756  -6.240  1.00  0.00    -0.269 OA
ATOM     18  H   UNL     1      32.036  22.124  -6.485  1.00  0.00     0.159 HD
ATOM     19  H   UNL     1      33.201  20.903  -6.117  1.00  0.00     0.159 HD
ENDBRANCH   1  15
BRANCH   4  20
ATOM     20  N   UNL     1      32.232  14.811  -5.332  1.00  0.00    -0.358 N
ATOM     21  H   UNL     1      32.021  14.453  -6.261  1.00  0.00     0.162 HD
BRANCH  20  22
ATOM     22  C   UNL     1      31.759  13.924  -4.224  1.00  0.00     0.195 C
BRANCH  22  23
ATOM     23  C   UNL     1      32.561  14.218  -2.930  1.00  0.00     0.023 C
ATOM     24  C   UNL     1      33.623  13.236  -2.444  1.00  0.00     0.012 C
ATOM     25  C   UNL     1      34.054  14.553  -3.001  1.00  0.00     0.012 C
ATOM     26  G   UNL     1      31.764  14.961  -1.867  1.00  0.00     0.000 C
ENDBRANCH  22  23
BRANCH  22  27
ATOM     27  C   UNL     1      31.728  12.413  -4.595  1.00  0.00     0.409 C
ATOM     28  F   UNL     1      31.468  11.627  -3.523  1.00  0.00    -0.169 F
ATOM     29  F   UNL     1      32.903  11.996  -5.127  1.00  0.00    -0.169 F
ATOM     30  F   UNL     1      30.759  12.147  -5.508  1.00  0.00    -0.169 F
ENDBRANCH  22  27
ENDBRANCH  20  22
ENDBRANCH   4  20
BRANCH  10  31
ATOM     31  C   UNL     1      26.497  14.296  -8.088  1.00  0.00     0.093 A
ATOM     32  C   UNL     1      27.348  14.003  -9.149  1.00  0.00     0.035 A
ATOM     33  N   UNL     1      25.415  13.518  -7.858  1.00  0.00    -0.148 NA
ATOM     34  C   UNL     1      27.222  12.773  -9.778  1.00  0.00     0.051 A
ATOM     35  N   UNL     1      25.274  12.322  -8.522  1.00  0.00    -0.132 NA
ATOM     36  C   UNL     1      26.231  11.896  -9.369  1.00  0.00     0.151 A
BRANCH  36  37
ATOM     37  N   UNL     1      26.311  10.552  -9.708  1.00  0.00    -0.353 N
ATOM     38  C   UNL     1      25.063   9.817  -9.891  1.00  0.00     0.134 C
ATOM     39  C   UNL     1      27.521   9.815  -9.298  1.00  0.00     0.140 C
ATOM     40  C   UNL     1      24.632   9.126  -8.619  1.00  0.00     0.159 C
ATOM     41  C   UNL     1      27.360   9.056  -7.976  1.00  0.00     0.153 C
ATOM     42  S   UNL     1      25.911   8.012  -8.103  1.00  0.00     0.158 S
ATOM     43  O   UNL     1      25.561   7.523  -6.782  1.00  0.00    -0.228 OA
ATOM     44  O   UNL     1      26.134   7.058  -9.175  1.00  0.00    -0.228 OA
BRANCH  41  45
ATOM     45  C   UNL     1      27.312   9.916  -6.711  1.00  0.00     0.181 C
BRANCH  45  46
ATOM     46  O   UNL     1      28.596   9.962  -6.051  1.00  0.00    -0.379 OA
BRANCH  46  47
ATOM     47  C   UNL     1      29.021   8.633  -5.705  1.00  0.00     0.169 C
ATOM     48  G   UNL     1      30.325   8.662  -4.919  1.00  0.00     0.000 C
ENDBRANCH  46  47
ENDBRANCH  45  46
ENDBRANCH  41  45
ENDBRANCH  36  37
ENDBRANCH  10  31
TORSDOF 2
ENDMDL
MODEL 5
REMARK VINA RESULT:      -7.7      1.324      1.718
REMARK SMILES NC(=O)c1cnc2c3c1[nH]c1cc(ccc13)-c1ccc(nn1)N1CCS(=O)(=O)[C@H](COCC3(CC3)[C@H](C(F)(F)F)N2)C1
REMARK SMILES IDX 4 1 5 2 6 3 7 4 8 5 9 6 10 7 11 8 12 9 13 10 14 11 15 12
REMARK SMILES IDX 16 13 2 15 1 16 3 17 41 20 36 22 33 23 34 24 35 25 37 27
REMARK SMILES IDX 38 28 39 29 40 30 17 31 18 32 22 33 19 34 21 35 20 36 23 37
REMARK SMILES IDX 24 38 42 39 25 40 29 41 26 42 27 43 28 44 30 45 31 46 32 47
REMARK H PARENT 10 14 1 18 1 19 41 21
REMARK Flexibility Score:   57.900
ROOT
ATOM      1  C   UNL     1      28.410   6.700  -7.358  1.00  0.00     0.082 A
ATOM      2  C   UNL     1      27.427   6.908  -8.316  1.00  0.00     0.129 A
ATOM      3  N   UNL     1      26.745   8.070  -8.506  1.00  0.00    -0.238 NA
ATOM      4  C   UNL     1      26.992   9.132  -7.701  1.00  0.00     0.136 A
ATOM      5  C   UNL     1      27.857   8.955  -6.596  1.00  0.00     0.051 A
ATOM      6  C   UNL     1      28.618   7.790  -6.510  1.00  0.00     0.065 A
ATOM      7  N   UNL     1      29.571   8.004  -5.532  1.00  0.00    -0.354 N
ATOM      8  C   UNL     1      29.477   9.290  -5.054  1.00  0.00     0.047 A
ATOM      9  C   UNL     1      30.384  10.089  -4.344  1.00  0.00     0.037 A
ATOM     10  C   UNL     1      30.021  11.441  -4.159  1.00  0.00     0.004 A
ATOM     11  C   UNL     1      28.671  11.811  -4.305  1.00  0.00     0.011 A
ATOM     12  C   UNL     1      27.773  10.989  -4.980  1.00  0.00     0.012 A
ATOM     13  C   UNL     1      28.256   9.783  -5.504  1.00  0.00     0.011 A
ATOM     14  H   UNL     1      30.319   7.347  -5.338  1.00  0.00     0.167 HD
ENDROOT
BRANCH   1  15
ATOM     15  C   UNL     1      29.223   5.472  -7.223  1.00  0.00     0.252 C
ATOM     16  N   UNL     1      28.962   4.415  -8.045  1.00  0.00    -0.365 N
ATOM     17  O   UNL     1      30.110   5.402  -6.377  1.00  0.00    -0.269 OA
ATOM     18  H   UNL     1      29.537   3.589  -7.922  1.00  0.00     0.159 HD
ATOM     19  H   UNL     1      28.226   4.367  -8.732  1.00  0.00     0.159 HD
ENDBRANCH   1  15
BRANCH   4  20
ATOM     20  N   UNL     1      26.473  10.350  -8.132  1.00  0.00    -0.358 N
ATOM     21  H   UNL     1      25.530  10.186  -8.476  1.00  0.00     0.162 HD
BRANCH  20  22
ATOM     22  C   UNL     1      27.317  11.169  -9.058  1.00  0.00     0.195 C
BRANCH  22  23
ATOM     23  C   UNL     1      26.822  12.638  -9.067  1.00  0.00     0.023 C
ATOM     24  C   UNL     1      27.389  13.648  -8.072  1.00  0.00     0.012 C
ATOM     25  C   UNL     1      27.753  13.769  -9.516  1.00  0.00     0.012 C
ATOM     26  G   UNL     1      25.357  12.792  -9.453  1.00  0.00     0.000 C
ENDBRANCH  22  23
BRANCH  22  27
ATOM     27  C   UNL     1      27.459  10.563 -10.484  1.00  0.00     0.409 C
ATOM     28  F   UNL     1      26.354   9.878 -10.863  1.00  0.00    -0.169 F
ATOM     29  F   UNL     1      28.512   9.714 -10.572  1.00  0.00    -0.169 F
ATOM     30  F   UNL     1      27.647  11.531 -11.417  1.00  0.00    -0.169 F
ENDBRANCH  22  27
ENDBRANCH  20  22
ENDBRANCH   4  20
BRANCH  10  31
ATOM     31  C   UNL     1      31.023  12.530  -4.220  1.00  0.00     0.093 A
ATOM     32  C   UNL     1      31.898  12.571  -5.300  1.00  0.00     0.035 A
ATOM     33  N   UNL     1      30.723  13.667  -3.552  1.00  0.00    -0.148 NA
ATOM     34  C   UNL     1      32.231  13.807  -5.836  1.00  0.00     0.051 A
ATOM     35  N   UNL     1      31.099  14.886  -4.066  1.00  0.00    -0.132 NA
ATOM     36  C   UNL     1      31.725  14.960  -5.257  1.00  0.00     0.151 A
BRANCH  36  37
ATOM     37  N   UNL     1      31.730  16.152  -5.966  1.00  0.00    -0.353 N
ATOM     38  C   UNL     1      32.560  17.244  -5.465  1.00  0.00     0.134 C
ATOM     39  C   UNL     1      30.535  16.475  -6.770  1.00  0.00     0.140 C
ATOM     40  C   UNL     1      31.778  18.171  -4.565  1.00  0.00     0.159 C
ATOM     41  C   UNL     1      29.532  17.378  -6.044  1.00  0.00     0.153 C
ATOM     42  S   UNL     1      30.404  18.832  -5.468  1.00  0.00     0.158 S
ATOM     43  O   UNL     1      29.563  19.548  -4.527  1.00  0.00    -0.228 OA
ATOM     44  O   UNL     1      30.926  19.535  -6.628  1.00  0.00    -0.228 OA
BRANCH  41  45
ATOM     45  C   UNL     1      28.739  16.725  -4.910  1.00  0.00     0.181 C
BRANCH  45  46
ATOM     46  O   UNL     1      27.368  17.182  -4.889  1.00  0.00    -0.379 OA
BRANCH  46  47
ATOM     47  C   UNL     1      26.505  16.179  -5.448  1.00  0.00     0.169 C
ATOM     48  G   UNL     1      26.599  14.877  -4.665  1.00  0.00     0.000 C
ENDBRANCH  46  47
ENDBRANCH  45  46
ENDBRANCH  41  45
ENDBRANCH  36  37
ENDBRANCH  10  31
TORSDOF 2
ENDMDL
MODEL 6
REMARK VINA RESULT:      -7.7      3.814      9.518
REMARK SMILES NC(=O)c1cnc2c3c1[nH]c1cc(ccc13)-c1ccc(nn1)N1CCS(=O)(=O)[C@H](COCC3(CC3)[C@H](C(F)(F)F)N2)C1
REMARK SMILES IDX 4 1 5 2 6 3 7 4 8 5 9 6 10 7 11 8 12 9 13 10 14 11 15 12
REMARK SMILES IDX 16 13 2 15 1 16 3 17 41 20 36 22 33 23 34 24 35 25 37 27
REMARK SMILES IDX 38 28 39 29 40 30 17 31 18 32 22 33 19 34 21 35 20 36 23 37
REMARK SMILES IDX 24 38 42 39 25 40 29 41 26 42 27 43 28 44 30 45 31 46 32 47
REMARK H PARENT 10 14 1 18 1 19 41 21
REMARK Flexibility Score:   57.900
ROOT
ATOM      1  C   UNL     1      32.442  20.868  -5.834  1.00  0.00     0.082 A
ATOM      2  C   UNL     1      31.346  21.720  -5.795  1.00  0.00     0.129 A
ATOM      3  N   UNL     1      30.044  21.333  -5.869  1.00  0.00    -0.238 NA
ATOM      4  C   UNL     1      29.742  20.021  -6.021  1.00  0.00     0.136 A
ATOM      5  C   UNL     1      30.798  19.105  -6.237  1.00  0.00     0.051 A
ATOM      6  C   UNL     1      32.112  19.526  -6.037  1.00  0.00     0.065 A
ATOM      7  N   UNL     1      32.899  18.390  -6.016  1.00  0.00    -0.354 N
ATOM      8  C   UNL     1      32.111  17.267  -6.125  1.00  0.00     0.047 A
ATOM      9  C   UNL     1      32.359  15.922  -5.820  1.00  0.00     0.037 A
ATOM     10  C   UNL     1      31.254  15.047  -5.893  1.00  0.00     0.004 A
ATOM     11  C   UNL     1      30.122  15.437  -6.632  1.00  0.00     0.011 A
ATOM     12  C   UNL     1      29.909  16.773  -6.961  1.00  0.00     0.012 A
ATOM     13  C   UNL     1      30.859  17.711  -6.537  1.00  0.00     0.011 A
ATOM     14  H   UNL     1      33.886  18.408  -5.787  1.00  0.00     0.167 HD
ENDROOT
BRANCH   1  15
ATOM     15  C   UNL     1      33.849  21.279  -5.647  1.00  0.00     0.252 C
ATOM     16  N   UNL     1      34.624  21.501  -6.748  1.00  0.00    -0.365 N
ATOM     17  O   UNL     1      34.316  21.407  -4.519  1.00  0.00    -0.269 OA
ATOM     18  H   UNL     1      35.585  21.779  -6.582  1.00  0.00     0.159 HD
ATOM     19  H   UNL     1      34.339  21.375  -7.707  1.00  0.00     0.159 HD
ENDBRANCH   1  15
BRANCH   4  20
ATOM     20  N   UNL     1      28.410  19.678  -5.803  1.00  0.00    -0.358 N
ATOM     21  H   UNL     1      28.379  19.004  -5.042  1.00  0.00     0.162 HD
BRANCH  20  22
ATOM     22  C   UNL     1      27.597  19.277  -6.995  1.00  0.00     0.195 C
BRANCH  22  23
ATOM     23  C   UNL     1      26.984  20.533  -7.665  1.00  0.00     0.023 C
ATOM     24  C   UNL     1      27.621  21.126  -8.919  1.00  0.00     0.012 C
ATOM     25  C   UNL     1      26.305  20.429  -9.035  1.00  0.00     0.012 C
ATOM     26  G   UNL     1      26.349  21.508  -6.683  1.00  0.00     0.000 C
ENDBRANCH  22  23
BRANCH  22  27
ATOM     27  C   UNL     1      26.547  18.167  -6.698  1.00  0.00     0.409 C
ATOM     28  F   UNL     1      26.490  17.240  -7.682  1.00  0.00    -0.169 F
ATOM     29  F   UNL     1      25.300  18.676  -6.547  1.00  0.00    -0.169 F
ATOM     30  F   UNL     1      26.846  17.496  -5.557  1.00  0.00    -0.169 F
ENDBRANCH  22  27
ENDBRANCH  20  22
ENDBRANCH   4  20
BRANCH  10  31
ATOM     31  C   UNL     1      31.071  13.943  -4.922  1.00  0.00     0.093 A
ATOM     32  C   UNL     1      29.928  13.936  -4.129  1.00  0.00     0.035 A
ATOM     33  N   UNL     1      31.707  12.782  -5.198  1.00  0.00    -0.148 NA
ATOM     34  C   UNL     1      29.314  12.720  -3.864  1.00  0.00     0.051 A
ATOM     35  N   UNL     1      31.112  11.581  -4.887  1.00  0.00    -0.132 NA
ATOM     36  C   UNL     1      29.876  11.551  -4.351  1.00  0.00     0.151 A
BRANCH  36  37
ATOM     37  N   UNL     1      29.115  10.393  -4.424  1.00  0.00    -0.353 N
ATOM     38  C   UNL     1      29.773   9.168  -4.869  1.00  0.00     0.134 C
ATOM     39  C   UNL     1      27.663  10.542  -4.636  1.00  0.00     0.140 C
ATOM     40  C   UNL     1      29.619   8.963  -6.358  1.00  0.00     0.159 C
ATOM     41  C   UNL     1      27.242  10.428  -6.106  1.00  0.00     0.153 C
ATOM     42  S   UNL     1      27.894   8.893  -6.757  1.00  0.00     0.158 S
ATOM     43  O   UNL     1      27.776   8.905  -8.204  1.00  0.00    -0.228 OA
ATOM     44  O   UNL     1      27.303   7.798  -6.007  1.00  0.00    -0.228 OA
BRANCH  41  45
ATOM     45  C   UNL     1      27.614  11.611  -7.003  1.00  0.00     0.181 C
BRANCH  45  46
ATOM     46  O   UNL     1      26.483  12.481  -7.231  1.00  0.00    -0.379 OA
BRANCH  46  47
ATOM     47  C   UNL     1      26.797  13.819  -6.812  1.00  0.00     0.169 C
ATOM     48  G   UNL     1      26.165  14.134  -5.464  1.00  0.00     0.000 C
ENDBRANCH  46  47
ENDBRANCH  45  46
ENDBRANCH  41  45
ENDBRANCH  36  37
ENDBRANCH  10  31
TORSDOF 2
ENDMDL
MODEL 7
REMARK VINA RESULT:      -7.7      1.374      1.843
REMARK SMILES NC(=O)c1cnc2c3c1[nH]c1cc(ccc13)-c1ccc(nn1)N1CCS(=O)(=O)[C@H](COCC3(CC3)[C@H](C(F)(F)F)N2)C1
REMARK SMILES IDX 4 1 5 2 6 3 7 4 8 5 9 6 10 7 11 8 12 9 13 10 14 11 15 12
REMARK SMILES IDX 16 13 2 15 1 16 3 17 41 20 36 22 33 23 34 24 35 25 37 27
REMARK SMILES IDX 38 28 39 29 40 30 17 31 18 32 22 33 19 34 21 35 20 36 23 37
REMARK SMILES IDX 24 38 42 39 25 40 29 41 26 42 27 43 28 44 30 45 31 46 32 47
REMARK H PARENT 10 14 1 18 1 19 41 21
REMARK Flexibility Score:   57.900
ROOT
ATOM      1  C   UNL     1      28.857   6.563  -7.275  1.00  0.00     0.082 A
ATOM      2  C   UNL     1      28.263   6.666  -8.526  1.00  0.00     0.129 A
ATOM      3  N   UNL     1      27.748   7.804  -9.064  1.00  0.00    -0.238 NA
ATOM      4  C   UNL     1      27.770   8.954  -8.346  1.00  0.00     0.136 A
ATOM      5  C   UNL     1      28.206   8.903  -7.002  1.00  0.00     0.051 A
ATOM      6  C   UNL     1      28.829   7.747  -6.534  1.00  0.00     0.065 A
ATOM      7  N   UNL     1      29.411   8.067  -5.322  1.00  0.00    -0.354 N
ATOM      8  C   UNL     1      29.233   9.404  -5.051  1.00  0.00     0.047 A
ATOM      9  C   UNL     1      29.893  10.271  -4.170  1.00  0.00     0.037 A
ATOM     10  C   UNL     1      29.564  11.640  -4.270  1.00  0.00     0.004 A
ATOM     11  C   UNL     1      28.362  12.009  -4.905  1.00  0.00     0.011 A
ATOM     12  C   UNL     1      27.698  11.122  -5.747  1.00  0.00     0.012 A
ATOM     13  C   UNL     1      28.262   9.853  -5.939  1.00  0.00     0.011 A
ATOM     14  H   UNL     1      30.014   7.429  -4.815  1.00  0.00     0.167 HD
ENDROOT
BRANCH   1  15
ATOM     15  C   UNL     1      29.510   5.351  -6.738  1.00  0.00     0.252 C
ATOM     16  N   UNL     1      29.679   4.274  -7.558  1.00  0.00    -0.365 N
ATOM     17  O   UNL     1      29.882   5.310  -5.568  1.00  0.00    -0.269 OA
ATOM     18  H   UNL     1      30.128   3.459  -7.155  1.00  0.00     0.159 HD
ATOM     19  H   UNL     1      29.363   4.202  -8.513  1.00  0.00     0.159 HD
ENDBRANCH   1  15
BRANCH   4  20
ATOM     20  N   UNL     1      27.493  10.117  -9.061  1.00  0.00    -0.358 N
ATOM     21  H   UNL     1      28.291  10.741  -8.967  1.00  0.00     0.162 HD
BRANCH  20  22
ATOM     22  C   UNL     1      26.176  10.783  -8.809  1.00  0.00     0.195 C
BRANCH  22  23
ATOM     23  C   UNL     1      25.045  10.011  -9.535  1.00  0.00     0.023 C
ATOM     24  C   UNL     1      24.337   8.850  -8.840  1.00  0.00     0.012 C
ATOM     25  C   UNL     1      23.593  10.128  -9.056  1.00  0.00     0.012 C
ATOM     26  G   UNL     1      25.239   9.903 -11.040  1.00  0.00     0.000 C
ENDBRANCH  22  23
BRANCH  22  27
ATOM     27  C   UNL     1      26.171  12.308  -9.119  1.00  0.00     0.409 C
ATOM     28  F   UNL     1      27.009  12.628 -10.133  1.00  0.00    -0.169 F
ATOM     29  F   UNL     1      26.538  13.046  -8.042  1.00  0.00    -0.169 F
ATOM     30  F   UNL     1      24.938  12.733  -9.492  1.00  0.00    -0.169 F
ENDBRANCH  22  27
ENDBRANCH  20  22
ENDBRANCH   4  20
BRANCH  10  31
ATOM     31  C   UNL     1      30.587  12.700  -4.109  1.00  0.00     0.093 A
ATOM     32  C   UNL     1      31.706  12.676  -4.935  1.00  0.00     0.035 A
ATOM     33  N   UNL     1      30.168  13.869  -3.575  1.00  0.00    -0.148 NA
ATOM     34  C   UNL     1      32.206  13.881  -5.407  1.00  0.00     0.051 A
ATOM     35  N   UNL     1      30.704  15.057  -4.015  1.00  0.00    -0.132 NA
ATOM     36  C   UNL     1      31.612  15.068  -5.011  1.00  0.00     0.151 A
BRANCH  36  37
ATOM     37  N   UNL     1      31.837  16.232  -5.732  1.00  0.00    -0.353 N
ATOM     38  C   UNL     1      32.667  17.267  -5.122  1.00  0.00     0.134 C
ATOM     39  C   UNL     1      30.822  16.625  -6.728  1.00  0.00     0.140 C
ATOM     40  C   UNL     1      31.833  18.286  -4.382  1.00  0.00     0.159 C
ATOM     41  C   UNL     1      29.797  17.633  -6.196  1.00  0.00     0.153 C
ATOM     42  S   UNL     1      30.688  19.028  -5.513  1.00  0.00     0.158 S
ATOM     43  O   UNL     1      29.770  19.842  -4.737  1.00  0.00    -0.228 OA
ATOM     44  O   UNL     1      31.451  19.645  -6.583  1.00  0.00    -0.228 OA
BRANCH  41  45
ATOM     45  C   UNL     1      28.775  17.087  -5.196  1.00  0.00     0.181 C
BRANCH  45  46
ATOM     46  O   UNL     1      27.458  16.992  -5.782  1.00  0.00    -0.379 OA
BRANCH  46  47
ATOM     47  C   UNL     1      27.295  17.999  -6.795  1.00  0.00     0.169 C
ATOM     48  G   UNL     1      25.860  18.505  -6.839  1.00  0.00     0.000 C
ENDBRANCH  46  47
ENDBRANCH  45  46
ENDBRANCH  41  45
ENDBRANCH  36  37
ENDBRANCH  10  31
TORSDOF 2
ENDMDL
MODEL 8
REMARK VINA RESULT:      -7.7      4.906      9.439
REMARK SMILES NC(=O)c1cnc2c3c1[nH]c1cc(ccc13)-c1ccc(nn1)N1CCS(=O)(=O)[C@H](COCC3(CC3)[C@H](C(F)(F)F)N2)C1
REMARK SMILES IDX 4 1 5 2 6 3 7 4 8 5 9 6 10 7 11 8 12 9 13 10 14 11 15 12
REMARK SMILES IDX 16 13 2 15 1 16 3 17 41 20 36 22 33 23 34 24 35 25 37 27
REMARK SMILES IDX 38 28 39 29 40 30 17 31 18 32 22 33 19 34 21 35 20 36 23 37
REMARK SMILES IDX 24 38 42 39 25 40 29 41 26 42 27 43 28 44 30 45 31 46 32 47
REMARK H PARENT 10 14 1 18 1 19 41 21
REMARK Flexibility Score:   57.900
ROOT
ATOM      1  C   UNL     1      33.066  18.935  -5.741  1.00  0.00     0.082 A
ATOM      2  C   UNL     1      33.688  17.719  -5.491  1.00  0.00     0.129 A
ATOM      3  N   UNL     1      33.057  16.520  -5.374  1.00  0.00    -0.238 NA
ATOM      4  C   UNL     1      31.707  16.461  -5.475  1.00  0.00     0.136 A
ATOM      5  C   UNL     1      30.982  17.672  -5.564  1.00  0.00     0.051 A
ATOM      6  C   UNL     1      31.673  18.860  -5.796  1.00  0.00     0.065 A
ATOM      7  N   UNL     1      30.730  19.813  -6.135  1.00  0.00    -0.354 N
ATOM      8  C   UNL     1      29.480  19.242  -6.191  1.00  0.00     0.047 A
ATOM      9  C   UNL     1      28.290  19.664  -6.798  1.00  0.00     0.037 A
ATOM     10  C   UNL     1      27.224  18.738  -6.805  1.00  0.00     0.004 A
ATOM     11  C   UNL     1      27.246  17.666  -5.893  1.00  0.00     0.011 A
ATOM     12  C   UNL     1      28.429  17.283  -5.268  1.00  0.00     0.012 A
ATOM     13  C   UNL     1      29.593  18.000  -5.574  1.00  0.00     0.011 A
ATOM     14  H   UNL     1      30.977  20.744  -6.450  1.00  0.00     0.167 HD
ENDROOT
BRANCH   1  15
ATOM     15  C   UNL     1      33.763  20.218  -5.972  1.00  0.00     0.252 C
ATOM     16  N   UNL     1      34.236  20.495  -7.222  1.00  0.00    -0.365 N
ATOM     17  O   UNL     1      33.924  21.015  -5.052  1.00  0.00    -0.269 OA
ATOM     18  H   UNL     1      34.711  21.383  -7.344  1.00  0.00     0.159 HD
ATOM     19  H   UNL     1      34.191  19.882  -8.021  1.00  0.00     0.159 HD
ENDBRANCH   1  15
BRANCH   4  20
ATOM     20  N   UNL     1      31.168  15.186  -5.630  1.00  0.00    -0.358 N
ATOM     21  H   UNL     1      30.347  15.262  -6.226  1.00  0.00     0.162 HD
BRANCH  20  22
ATOM     22  C   UNL     1      30.939  14.379  -4.390  1.00  0.00     0.195 C
BRANCH  22  23
ATOM     23  C   UNL     1      32.182  13.505  -4.089  1.00  0.00     0.023 C
ATOM     24  C   UNL     1      33.399  14.110  -3.393  1.00  0.00     0.012 C
ATOM     25  C   UNL     1      32.544  13.140  -2.645  1.00  0.00     0.012 C
ATOM     26  G   UNL     1      32.444  12.426  -5.131  1.00  0.00     0.000 C
ENDBRANCH  22  23
BRANCH  22  27
ATOM     27  C   UNL     1      29.609  13.569  -4.402  1.00  0.00     0.409 C
ATOM     28  F   UNL     1      29.657  12.496  -3.578  1.00  0.00    -0.169 F
ATOM     29  F   UNL     1      29.301  13.116  -5.641  1.00  0.00    -0.169 F
ATOM     30  F   UNL     1      28.565  14.327  -3.982  1.00  0.00    -0.169 F
ENDBRANCH  22  27
ENDBRANCH  20  22
ENDBRANCH   4  20
BRANCH  10  31
ATOM     31  C   UNL     1      26.313  18.610  -7.966  1.00  0.00     0.093 A
ATOM     32  C   UNL     1      26.862  18.580  -9.244  1.00  0.00     0.035 A
ATOM     33  N   UNL     1      25.114  18.029  -7.734  1.00  0.00    -0.148 NA
ATOM     34  C   UNL     1      26.302  17.728 -10.185  1.00  0.00     0.051 A
ATOM     35  N   UNL     1      24.543  17.224  -8.692  1.00  0.00    -0.132 NA
ATOM     36  C   UNL     1      25.192  16.972  -9.845  1.00  0.00     0.151 A
BRANCH  36  37
ATOM     37  N   UNL     1      24.844  15.868 -10.611  1.00  0.00    -0.353 N
ATOM     38  C   UNL     1      23.531  15.269 -10.392  1.00  0.00     0.134 C
ATOM     39  C   UNL     1      25.938  15.022 -11.127  1.00  0.00     0.140 C
ATOM     40  C   UNL     1      23.593  14.137  -9.394  1.00  0.00     0.159 C
ATOM     41  C   UNL     1      26.244  13.807 -10.244  1.00  0.00     0.153 C
ATOM     42  S   UNL     1      24.720  12.904  -9.986  1.00  0.00     0.158 S
ATOM     43  O   UNL     1      24.915  11.939  -8.920  1.00  0.00    -0.228 OA
ATOM     44  O   UNL     1      24.243  12.445 -11.279  1.00  0.00    -0.228 OA
BRANCH  41  45
ATOM     45  C   UNL     1      26.942  14.104  -8.915  1.00  0.00     0.181 C
BRANCH  45  46
ATOM     46  O   UNL     1      25.988  14.376  -7.864  1.00  0.00    -0.379 OA
BRANCH  46  47
ATOM     47  C   UNL     1      26.538  14.005  -6.589  1.00  0.00     0.169 C
ATOM     48  G   UNL     1      25.497  14.127  -5.486  1.00  0.00     0.000 C
ENDBRANCH  46  47
ENDBRANCH  45  46
ENDBRANCH  41  45
ENDBRANCH  36  37
ENDBRANCH  10  31
TORSDOF 2
ENDMDL
MODEL 9
REMARK VINA RESULT:      -7.6      3.594      9.175
REMARK SMILES NC(=O)c1cnc2c3c1[nH]c1cc(ccc13)-c1ccc(nn1)N1CCS(=O)(=O)[C@H](COCC3(CC3)[C@H](C(F)(F)F)N2)C1
REMARK SMILES IDX 4 1 5 2 6 3 7 4 8 5 9 6 10 7 11 8 12 9 13 10 14 11 15 12
REMARK SMILES IDX 16 13 2 15 1 16 3 17 41 20 36 22 33 23 34 24 35 25 37 27
REMARK SMILES IDX 38 28 39 29 40 30 17 31 18 32 22 33 19 34 21 35 20 36 23 37
REMARK SMILES IDX 24 38 42 39 25 40 29 41 26 42 27 43 28 44 30 45 31 46 32 47
REMARK H PARENT 10 14 1 18 1 19 41 21
REMARK Flexibility Score:   57.900
ROOT
ATOM      1  C   UNL     1      31.923  16.413  -4.646  1.00  0.00     0.082 A
ATOM      2  C   UNL     1      33.013  15.622  -4.304  1.00  0.00     0.129 A
ATOM      3  N   UNL     1      33.035  14.263  -4.317  1.00  0.00    -0.238 NA
ATOM      4  C   UNL     1      31.918  13.577  -4.660  1.00  0.00     0.136 A
ATOM      5  C   UNL     1      30.718  14.298  -4.863  1.00  0.00     0.051 A
ATOM      6  C   UNL     1      30.769  15.688  -4.952  1.00  0.00     0.065 A
ATOM      7  N   UNL     1      29.546  16.103  -5.443  1.00  0.00    -0.354 N
ATOM      8  C   UNL     1      28.757  15.014  -5.730  1.00  0.00     0.047 A
ATOM      9  C   UNL     1      27.619  14.875  -6.536  1.00  0.00     0.037 A
ATOM     10  C   UNL     1      27.154  13.558  -6.746  1.00  0.00     0.004 A
ATOM     11  C   UNL     1      27.557  12.543  -5.859  1.00  0.00     0.011 A
ATOM     12  C   UNL     1      28.667  12.711  -5.036  1.00  0.00     0.012 A
ATOM     13  C   UNL     1      29.365  13.923  -5.118  1.00  0.00     0.011 A
ATOM     14  H   UNL     1      29.352  17.066  -5.697  1.00  0.00     0.167 HD
ENDROOT
BRANCH   1  15
ATOM     15  C   UNL     1      31.933  17.888  -4.733  1.00  0.00     0.252 C
ATOM     16  N   UNL     1      33.035  18.512  -5.243  1.00  0.00    -0.365 N
ATOM     17  O   UNL     1      30.971  18.542  -4.340  1.00  0.00    -0.269 OA
ATOM     18  H   UNL     1      33.008  19.524  -5.285  1.00  0.00     0.159 HD
ATOM     19  H   UNL     1      33.884  18.059  -5.543  1.00  0.00     0.159 HD
ENDBRANCH   1  15
BRANCH   4  20
ATOM     20  N   UNL     1      32.099  12.221  -4.925  1.00  0.00    -0.358 N
ATOM     21  H   UNL     1      31.693  12.023  -5.837  1.00  0.00     0.162 HD
BRANCH  20  22
ATOM     22  C   UNL     1      31.691  11.251  -3.862  1.00  0.00     0.195 C
BRANCH  22  23
ATOM     23  C   UNL     1      32.937  10.775  -3.072  1.00  0.00     0.023 C
ATOM     24  C   UNL     1      34.336  10.969  -3.651  1.00  0.00     0.012 C
ATOM     25  C   UNL     1      33.916  11.794  -2.478  1.00  0.00     0.012 C
ATOM     26  G   UNL     1      32.698   9.523  -2.240  1.00  0.00     0.000 C
ENDBRANCH  22  23
BRANCH  22  27
ATOM     27  C   UNL     1      30.812  10.076  -4.382  1.00  0.00     0.409 C
ATOM     28  F   UNL     1      31.481   8.900  -4.390  1.00  0.00    -0.169 F
ATOM     29  F   UNL     1      30.364  10.297  -5.642  1.00  0.00    -0.169 F
ATOM     30  F   UNL     1      29.720   9.891  -3.597  1.00  0.00    -0.169 F
ENDBRANCH  22  27
ENDBRANCH  20  22
ENDBRANCH   4  20
BRANCH  10  31
ATOM     31  C   UNL     1      26.608  13.126  -8.053  1.00  0.00     0.093 A
ATOM     32  C   UNL     1      27.251  13.542  -9.215  1.00  0.00     0.035 A
ATOM     33  N   UNL     1      25.878  11.988  -8.058  1.00  0.00    -0.148 NA
ATOM     34  C   UNL     1      27.353  12.648 -10.271  1.00  0.00     0.051 A
ATOM     35  N   UNL     1      25.948  11.130  -9.131  1.00  0.00    -0.132 NA
ATOM     36  C   UNL     1      26.776  11.393 -10.161  1.00  0.00     0.151 A
BRANCH  36  37
ATOM     37  N   UNL     1      27.166  10.373 -11.017  1.00  0.00    -0.353 N
ATOM     38  C   UNL     1      26.127   9.673 -11.767  1.00  0.00     0.134 C
ATOM     39  C   UNL     1      28.423   9.665 -10.708  1.00  0.00     0.140 C
ATOM     40  C   UNL     1      25.657   8.433 -11.043  1.00  0.00     0.159 C
ATOM     41  C   UNL     1      28.221   8.372  -9.911  1.00  0.00     0.153 C
ATOM     42  S   UNL     1      27.039   7.353 -10.788  1.00  0.00     0.158 S
ATOM     43  O   UNL     1      26.601   6.278  -9.917  1.00  0.00    -0.228 OA
ATOM     44  O   UNL     1      27.600   7.028 -12.088  1.00  0.00    -0.228 OA
BRANCH  41  45
ATOM     45  C   UNL     1      27.820   8.544  -8.443  1.00  0.00     0.181 C
BRANCH  45  46
ATOM     46  O   UNL     1      28.502   7.597  -7.592  1.00  0.00    -0.379 OA
BRANCH  46  47
ATOM     47  C   UNL     1      28.031   7.721  -6.240  1.00  0.00     0.169 C
ATOM     48  G   UNL     1      27.309   9.044  -6.030  1.00  0.00     0.000 C
ENDBRANCH  46  47
ENDBRANCH  45  46
ENDBRANCH  41  45
ENDBRANCH  36  37
ENDBRANCH  10  31
TORSDOF 2
ENDMDL
