MODEL 1
REMARK VINA RESULT:      -7.6      0.000      0.000
REMARK SMILES Cc1cnc2nc1-c1cccc(c1)COCC=C1CNC[C@@H]3CCCN3CCOc3ccc(cc3COC1)N2
REMARK SMILES IDX 30 1 31 2 32 3 33 4 34 5 35 6 39 7 5 9 2 10 3 11 7 12 4 13
REMARK SMILES IDX 6 14 1 15 8 16 9 17 13 18 10 19 12 20 11 21 14 22 15 23
REMARK SMILES IDX 16 24 36 26 37 27 38 28 18 29 17 30 19 32 20 33 21 35 29 37
REMARK SMILES IDX 28 38 27 39 26 40 25 41 22 42 24 43 23 44
REMARK H PARENT 39 8 20 34
REMARK Flexibility Score:  100.800
ROOT
ATOM      1  C   UNL     1      29.014   8.016  -5.601  1.00  0.00     0.125 A
ATOM      2  C   UNL     1      29.955   7.110  -5.120  1.00  0.00     0.049 A
ATOM      3  C   UNL     1      30.988   7.558  -4.292  1.00  0.00     0.030 A
ATOM      4  C   UNL     1      31.115   8.913  -3.949  1.00  0.00     0.042 A
ATOM      5  C   UNL     1      30.180   9.808  -4.481  1.00  0.00     0.036 A
ATOM      6  C   UNL     1      29.114   9.378  -5.295  1.00  0.00     0.022 A
ENDROOT
BRANCH   4   7
ATOM      7  N   UNL     1      32.146   9.291  -3.083  1.00  0.00    -0.324 N
ATOM      8  H   UNL     1      32.425   8.627  -2.376  1.00  0.00     0.170 HD
BRANCH   7   9
ATOM      9  C   UNL     1      32.917  10.442  -2.942  1.00  0.00     0.227 A
ATOM     10  C   UNL     1      34.553  12.606  -2.604  1.00  0.00    -0.006 A
ATOM     11  C   UNL     1      34.979  11.307  -2.432  1.00  0.00     0.120 A
ATOM     12  C   UNL     1      33.227  12.731  -2.984  1.00  0.00     0.079 A
ATOM     13  N   UNL     1      34.194  10.225  -2.595  1.00  0.00    -0.221 NA
ATOM     14  N   UNL     1      32.412  11.664  -3.135  1.00  0.00    -0.212 NA
ATOM     15  C   UNL     1      35.483  13.758  -2.420  1.00  0.00     0.048 C
BRANCH  12  16
ATOM     16  C   UNL     1      32.591  14.022  -3.281  1.00  0.00     0.001 A
ATOM     17  C   UNL     1      31.969  14.766  -2.266  1.00  0.00     0.010 A
ATOM     18  C   UNL     1      32.607  14.553  -4.583  1.00  0.00     0.016 A
ATOM     19  C   UNL     1      31.364  15.992  -2.544  1.00  0.00     0.001 A
ATOM     20  C   UNL     1      32.014  15.793  -4.874  1.00  0.00    -0.022 A
ATOM     21  C   UNL     1      31.381  16.499  -3.842  1.00  0.00     0.006 A
BRANCH  20  22
ATOM     22  C   UNL     1      32.006  16.348  -6.280  1.00  0.00     0.196 C
BRANCH  22  23
ATOM     23  O   UNL     1      33.281  16.793  -6.739  1.00  0.00    -0.373 OA
BRANCH  23  24
ATOM     24  C   UNL     1      33.306  18.188  -7.043  1.00  0.00     0.188 C
ATOM     25  G   UNL     1      33.738  18.893  -5.794  1.00  0.00     0.000 C
ENDBRANCH  23  24
ENDBRANCH  22  23
ENDBRANCH  20  22
ENDBRANCH  12  16
ENDBRANCH   7   9
ENDBRANCH   4   7
BRANCH   6  26
ATOM     26  C   UNL     1      28.121  10.384  -5.825  1.00  0.00     0.200 C
BRANCH  26  27
ATOM     27  O   UNL     1      28.136  11.656  -5.170  1.00  0.00    -0.372 OA
BRANCH  27  28
ATOM     28  C   UNL     1      27.109  12.560  -5.575  1.00  0.00     0.193 C
BRANCH  28  29
ATOM     29  C   UNL     1      27.708  13.747  -6.293  1.00  0.00    -0.033 C
ATOM     30  C   UNL     1      27.612  13.928  -7.629  1.00  0.00     0.004 C
ATOM     31  G   UNL     1      26.875  13.072  -8.613  1.00  0.00     0.000 C
BRANCH  29  32
ATOM     32  C   UNL     1      28.594  14.657  -5.465  1.00  0.00     0.114 C
BRANCH  32  33
ATOM     33  N   UNL     1      27.884  15.526  -4.527  1.00  0.00    -0.311 NA
ATOM     34  H   UNL     1      28.543  15.765  -3.784  1.00  0.00     0.123 HD
BRANCH  33  35
ATOM     35  C   UNL     1      27.347  16.769  -5.091  1.00  0.00     0.100 C
ATOM     36  G   UNL     1      28.393  17.806  -5.579  1.00  0.00     0.000 C
ENDBRANCH  33  35
ENDBRANCH  32  33
ENDBRANCH  29  32
ENDBRANCH  28  29
ENDBRANCH  27  28
ENDBRANCH  26  27
ENDBRANCH   6  26
BRANCH   1  37
ATOM     37  O   UNL     1      28.015   7.556  -6.419  1.00  0.00    -0.492 OA
BRANCH  37  38
ATOM     38  C   UNL     1      28.558   7.106  -7.676  1.00  0.00     0.245 C
BRANCH  38  39
ATOM     39  C   UNL     1      28.199   8.141  -8.756  1.00  0.00     0.126 C
BRANCH  39  40
ATOM     40  N   UNL     1      28.001   7.698 -10.144  1.00  0.00    -0.296 NA
ATOM     41  C   UNL     1      26.982   6.658 -10.294  1.00  0.00     0.085 C
ATOM     42  C   UNL     1      27.671   8.731 -11.157  1.00  0.00     0.070 C
ATOM     43  C   UNL     1      25.714   7.354 -10.761  1.00  0.00     0.017 C
ATOM     44  C   UNL     1      26.146   8.739 -11.221  1.00  0.00     0.022 C
ATOM     45  G   UNL     1      28.358  10.113 -10.995  1.00  0.00     0.000 C
ENDBRANCH  39  40
ENDBRANCH  38  39
ENDBRANCH  37  38
ENDBRANCH   1  37
TORSDOF 0
ENDMDL
MODEL 2
REMARK VINA RESULT:      -7.4      3.220      8.036
REMARK SMILES Cc1cnc2nc1-c1cccc(c1)COCC=C1CNC[C@@H]3CCCN3CCOc3ccc(cc3COC1)N2
REMARK SMILES IDX 30 1 31 2 32 3 33 4 34 5 35 6 39 7 5 9 2 10 3 11 7 12 4 13
REMARK SMILES IDX 6 14 1 15 8 16 9 17 13 18 10 19 12 20 11 21 14 22 15 23
REMARK SMILES IDX 16 24 36 26 37 27 38 28 18 29 17 30 19 32 20 33 21 35 29 37
REMARK SMILES IDX 28 38 27 39 26 40 25 41 22 42 24 43 23 44
REMARK H PARENT 39 8 20 34
REMARK Flexibility Score:  100.800
ROOT
ATOM      1  C   UNL     1      27.391  15.975  -6.959  1.00  0.00     0.125 A
ATOM      2  C   UNL     1      27.180  14.875  -7.786  1.00  0.00     0.049 A
ATOM      3  C   UNL     1      27.043  13.602  -7.226  1.00  0.00     0.030 A
ATOM      4  C   UNL     1      27.137  13.399  -5.840  1.00  0.00     0.042 A
ATOM      5  C   UNL     1      27.391  14.515  -5.035  1.00  0.00     0.036 A
ATOM      6  C   UNL     1      27.506  15.812  -5.573  1.00  0.00     0.022 A
ENDROOT
BRANCH   4   7
ATOM      7  N   UNL     1      26.949  12.107  -5.339  1.00  0.00    -0.324 N
ATOM      8  H   UNL     1      26.073  11.910  -4.879  1.00  0.00     0.170 HD
BRANCH   7   9
ATOM      9  C   UNL     1      27.738  10.960  -5.305  1.00  0.00     0.227 A
ATOM     10  C   UNL     1      29.162   8.626  -5.311  1.00  0.00    -0.006 A
ATOM     11  C   UNL     1      27.956   8.773  -5.962  1.00  0.00     0.120 A
ATOM     12  C   UNL     1      29.611   9.767  -4.666  1.00  0.00     0.079 A
ATOM     13  N   UNL     1      27.239   9.912  -5.976  1.00  0.00    -0.221 NA
ATOM     14  N   UNL     1      28.901  10.916  -4.646  1.00  0.00    -0.212 NA
ATOM     15  C   UNL     1      29.912   7.336  -5.350  1.00  0.00     0.048 C
BRANCH  12  16
ATOM     16  C   UNL     1      30.901   9.844  -3.967  1.00  0.00     0.001 A
ATOM     17  C   UNL     1      31.394   8.743  -3.247  1.00  0.00     0.010 A
ATOM     18  C   UNL     1      31.682  11.012  -4.018  1.00  0.00     0.016 A
ATOM     19  C   UNL     1      32.618   8.812  -2.582  1.00  0.00     0.001 A
ATOM     20  C   UNL     1      32.924  11.089  -3.364  1.00  0.00    -0.022 A
ATOM     21  C   UNL     1      33.375   9.981  -2.636  1.00  0.00     0.006 A
BRANCH  20  22
ATOM     22  C   UNL     1      33.748  12.356  -3.395  1.00  0.00     0.196 C
BRANCH  22  23
ATOM     23  O   UNL     1      34.267  12.746  -2.124  1.00  0.00    -0.373 OA
BRANCH  23  24
ATOM     24  C   UNL     1      35.689  12.651  -2.053  1.00  0.00     0.188 C
ATOM     25  G   UNL     1      36.010  11.929  -0.780  1.00  0.00     0.000 C
ENDBRANCH  23  24
ENDBRANCH  22  23
ENDBRANCH  20  22
ENDBRANCH  12  16
ENDBRANCH   7   9
ENDBRANCH   4   7
BRANCH   6  26
ATOM     26  C   UNL     1      27.759  16.985  -4.656  1.00  0.00     0.200 C
BRANCH  26  27
ATOM     27  O   UNL     1      29.138  17.285  -4.421  1.00  0.00    -0.372 OA
BRANCH  27  28
ATOM     28  C   UNL     1      30.064  16.546  -5.215  1.00  0.00     0.193 C
BRANCH  28  29
ATOM     29  C   UNL     1      31.335  17.339  -5.414  1.00  0.00    -0.033 C
ATOM     30  C   UNL     1      32.509  17.014  -4.828  1.00  0.00     0.004 C
ATOM     31  G   UNL     1      32.795  15.827  -3.960  1.00  0.00     0.000 C
BRANCH  29  32
ATOM     32  C   UNL     1      31.201  18.645  -6.171  1.00  0.00     0.114 C
BRANCH  32  33
ATOM     33  N   UNL     1      29.895  18.869  -6.793  1.00  0.00    -0.311 NA
ATOM     34  H   UNL     1      29.285  18.108  -6.489  1.00  0.00     0.123 HD
BRANCH  33  35
ATOM     35  C   UNL     1      29.245  20.143  -6.470  1.00  0.00     0.100 C
ATOM     36  G   UNL     1      30.185  21.301  -6.041  1.00  0.00     0.000 C
ENDBRANCH  33  35
ENDBRANCH  32  33
ENDBRANCH  29  32
ENDBRANCH  28  29
ENDBRANCH  27  28
ENDBRANCH  26  27
ENDBRANCH   6  26
BRANCH   1  37
ATOM     37  O   UNL     1      27.532  17.213  -7.530  1.00  0.00    -0.492 OA
BRANCH  37  38
ATOM     38  C   UNL     1      26.398  17.515  -8.365  1.00  0.00     0.245 C
BRANCH  38  39
ATOM     39  C   UNL     1      26.598  18.918  -8.965  1.00  0.00     0.126 C
BRANCH  39  40
ATOM     40  N   UNL     1      25.555  19.938  -8.782  1.00  0.00    -0.296 NA
ATOM     41  C   UNL     1      25.075  20.055  -7.404  1.00  0.00     0.085 C
ATOM     42  C   UNL     1      25.862  21.322  -9.218  1.00  0.00     0.070 C
ATOM     43  C   UNL     1      25.787  21.252  -6.795  1.00  0.00     0.017 C
ATOM     44  C   UNL     1      26.388  22.017  -7.966  1.00  0.00     0.022 C
ATOM     45  G   UNL     1      26.722  21.477 -10.501  1.00  0.00     0.000 C
ENDBRANCH  39  40
ENDBRANCH  38  39
ENDBRANCH  37  38
ENDBRANCH   1  37
TORSDOF 0
ENDMDL
MODEL 3
REMARK VINA RESULT:      -7.3      2.452      7.646
REMARK SMILES Cc1cnc2nc1-c1cccc(c1)COCC=C1CNC[C@@H]3CCCN3CCOc3ccc(cc3COC1)N2
REMARK SMILES IDX 30 1 31 2 32 3 33 4 34 5 35 6 39 7 5 9 2 10 3 11 7 12 4 13
REMARK SMILES IDX 6 14 1 15 8 16 9 17 13 18 10 19 12 20 11 21 14 22 15 23
REMARK SMILES IDX 16 24 36 26 37 27 38 28 18 29 17 30 19 32 20 33 21 35 29 37
REMARK SMILES IDX 28 38 27 39 26 40 25 41 22 42 24 43 23 44
REMARK H PARENT 39 8 20 34
REMARK Flexibility Score:  100.800
ROOT
ATOM      1  C   UNL     1      30.282  16.789  -4.599  1.00  0.00     0.125 A
ATOM      2  C   UNL     1      30.024  15.899  -3.560  1.00  0.00     0.049 A
ATOM      3  C   UNL     1      31.075  15.173  -2.993  1.00  0.00     0.030 A
ATOM      4  C   UNL     1      32.391  15.302  -3.464  1.00  0.00     0.042 A
ATOM      5  C   UNL     1      32.615  16.172  -4.537  1.00  0.00     0.036 A
ATOM      6  C   UNL     1      31.578  16.935  -5.107  1.00  0.00     0.022 A
ENDROOT
BRANCH   4   7
ATOM      7  N   UNL     1      33.404  14.579  -2.826  1.00  0.00    -0.324 N
ATOM      8  H   UNL     1      34.136  15.106  -2.373  1.00  0.00     0.170 HD
BRANCH   7   9
ATOM      9  C   UNL     1      33.672  13.221  -2.672  1.00  0.00     0.227 A
ATOM     10  C   UNL     1      34.347  10.597  -2.307  1.00  0.00    -0.006 A
ATOM     11  C   UNL     1      35.110  11.643  -1.834  1.00  0.00     0.120 A
ATOM     12  C   UNL     1      33.192  10.981  -2.969  1.00  0.00     0.079 A
ATOM     13  N   UNL     1      34.797  12.942  -1.999  1.00  0.00    -0.221 NA
ATOM     14  N   UNL     1      32.865  12.277  -3.166  1.00  0.00    -0.212 NA
ATOM     15  C   UNL     1      34.747   9.178  -2.075  1.00  0.00     0.048 C
BRANCH  12  16
ATOM     16  C   UNL     1      32.207  10.024  -3.494  1.00  0.00     0.001 A
ATOM     17  C   UNL     1      32.340   8.649  -3.244  1.00  0.00     0.010 A
ATOM     18  C   UNL     1      31.100  10.464  -4.241  1.00  0.00     0.016 A
ATOM     19  C   UNL     1      31.408   7.737  -3.741  1.00  0.00     0.001 A
ATOM     20  C   UNL     1      30.147   9.557  -4.735  1.00  0.00    -0.022 A
ATOM     21  C   UNL     1      30.321   8.189  -4.488  1.00  0.00     0.006 A
BRANCH  20  22
ATOM     22  C   UNL     1      28.973  10.028  -5.563  1.00  0.00     0.196 C
BRANCH  22  23
ATOM     23  O   UNL     1      28.173   8.973  -6.094  1.00  0.00    -0.373 OA
BRANCH  23  24
ATOM     24  C   UNL     1      28.651   8.492  -7.350  1.00  0.00     0.188 C
ATOM     25  G   UNL     1      28.498   7.002  -7.329  1.00  0.00     0.000 C
ENDBRANCH  23  24
ENDBRANCH  22  23
ENDBRANCH  20  22
ENDBRANCH  12  16
ENDBRANCH   7   9
ENDBRANCH   4   7
BRANCH   6  26
ATOM     26  C   UNL     1      31.879  17.875  -6.250  1.00  0.00     0.200 C
BRANCH  26  27
ATOM     27  O   UNL     1      32.284  19.192  -5.864  1.00  0.00    -0.372 OA
BRANCH  27  28
ATOM     28  C   UNL     1      31.678  19.688  -4.671  1.00  0.00     0.193 C
BRANCH  28  29
ATOM     29  C   UNL     1      31.282  21.136  -4.847  1.00  0.00    -0.033 C
ATOM     30  C   UNL     1      30.289  21.537  -5.671  1.00  0.00     0.004 C
ATOM     31  G   UNL     1      29.379  20.670  -6.488  1.00  0.00     0.000 C
BRANCH  29  32
ATOM     32  C   UNL     1      32.178  22.163  -4.183  1.00  0.00     0.114 C
BRANCH  32  33
ATOM     33  N   UNL     1      33.613  21.944  -4.368  1.00  0.00    -0.311 NA
ATOM     34  H   UNL     1      33.791  20.956  -4.181  1.00  0.00     0.123 HD
BRANCH  33  35
ATOM     35  C   UNL     1      34.141  22.269  -5.697  1.00  0.00     0.100 C
ATOM     36  G   UNL     1      34.903  21.131  -6.428  1.00  0.00     0.000 C
ENDBRANCH  33  35
ENDBRANCH  32  33
ENDBRANCH  29  32
ENDBRANCH  28  29
ENDBRANCH  27  28
ENDBRANCH  26  27
ENDBRANCH   6  26
BRANCH   1  37
ATOM     37  O   UNL     1      29.234  17.484  -5.147  1.00  0.00    -0.492 OA
BRANCH  37  38
ATOM     38  C   UNL     1      28.719  16.793  -6.301  1.00  0.00     0.245 C
BRANCH  38  39
ATOM     39  C   UNL     1      27.211  17.082  -6.405  1.00  0.00     0.126 C
BRANCH  39  40
ATOM     40  N   UNL     1      26.306  16.030  -6.892  1.00  0.00    -0.296 NA
ATOM     41  C   UNL     1      26.487  15.700  -8.306  1.00  0.00     0.085 C
ATOM     42  C   UNL     1      26.308  14.733  -6.173  1.00  0.00     0.070 C
ATOM     43  C   UNL     1      27.329  14.435  -8.354  1.00  0.00     0.017 C
ATOM     44  C   UNL     1      27.300  13.864  -6.942  1.00  0.00     0.022 C
ATOM     45  G   UNL     1      26.494  14.786  -4.633  1.00  0.00     0.000 C
ENDBRANCH  39  40
ENDBRANCH  38  39
ENDBRANCH  37  38
ENDBRANCH   1  37
TORSDOF 0
ENDMDL
MODEL 4
REMARK VINA RESULT:      -7.3      3.300      8.480
REMARK SMILES Cc1cnc2nc1-c1cccc(c1)COCC=C1CNC[C@@H]3CCCN3CCOc3ccc(cc3COC1)N2
REMARK SMILES IDX 30 1 31 2 32 3 33 4 34 5 35 6 39 7 5 9 2 10 3 11 7 12 4 13
REMARK SMILES IDX 6 14 1 15 8 16 9 17 13 18 10 19 12 20 11 21 14 22 15 23
REMARK SMILES IDX 16 24 36 26 37 27 38 28 18 29 17 30 19 32 20 33 21 35 29 37
REMARK SMILES IDX 28 38 27 39 26 40 25 41 22 42 24 43 23 44
REMARK H PARENT 39 8 20 34
REMARK Flexibility Score:  100.800
ROOT
ATOM      1  C   UNL     1      28.792  16.258  -6.086  1.00  0.00     0.125 A
ATOM      2  C   UNL     1      29.693  15.197  -6.067  1.00  0.00     0.049 A
ATOM      3  C   UNL     1      29.230  13.898  -5.839  1.00  0.00     0.030 A
ATOM      4  C   UNL     1      27.871  13.637  -5.605  1.00  0.00     0.042 A
ATOM      5  C   UNL     1      26.993  14.726  -5.588  1.00  0.00     0.036 A
ATOM      6  C   UNL     1      27.430  16.041  -5.843  1.00  0.00     0.022 A
ENDROOT
BRANCH   4   7
ATOM      7  N   UNL     1      27.466  12.310  -5.425  1.00  0.00    -0.324 N
ATOM      8  H   UNL     1      26.479  12.139  -5.301  1.00  0.00     0.170 HD
BRANCH   7   9
ATOM      9  C   UNL     1      28.142  11.095  -5.351  1.00  0.00     0.227 A
ATOM     10  C   UNL     1      29.340   8.639  -5.286  1.00  0.00    -0.006 A
ATOM     11  C   UNL     1      28.182   8.892  -5.988  1.00  0.00     0.120 A
ATOM     12  C   UNL     1      29.866   9.738  -4.628  1.00  0.00     0.079 A
ATOM     13  N   UNL     1      27.575  10.092  -6.037  1.00  0.00    -0.221 NA
ATOM     14  N   UNL     1      29.267  10.949  -4.644  1.00  0.00    -0.212 NA
ATOM     15  C   UNL     1      29.967   7.284  -5.287  1.00  0.00     0.048 C
BRANCH  12  16
ATOM     16  C   UNL     1      31.128   9.700  -3.876  1.00  0.00     0.001 A
ATOM     17  C   UNL     1      31.467   8.581  -3.098  1.00  0.00     0.010 A
ATOM     18  C   UNL     1      32.035  10.773  -3.932  1.00  0.00     0.016 A
ATOM     19  C   UNL     1      32.664   8.541  -2.382  1.00  0.00     0.001 A
ATOM     20  C   UNL     1      33.250  10.740  -3.226  1.00  0.00    -0.022 A
ATOM     21  C   UNL     1      33.547   9.618  -2.442  1.00  0.00     0.006 A
BRANCH  20  22
ATOM     22  C   UNL     1      34.211  11.906  -3.263  1.00  0.00     0.196 C
BRANCH  22  23
ATOM     23  O   UNL     1      34.256  12.664  -2.055  1.00  0.00    -0.373 OA
BRANCH  23  24
ATOM     24  C   UNL     1      35.587  12.888  -1.591  1.00  0.00     0.188 C
ATOM     25  G   UNL     1      36.029  11.624  -0.919  1.00  0.00     0.000 C
ENDBRANCH  23  24
ENDBRANCH  22  23
ENDBRANCH  20  22
ENDBRANCH  12  16
ENDBRANCH   7   9
ENDBRANCH   4   7
BRANCH   6  26
ATOM     26  C   UNL     1      26.436  17.177  -5.834  1.00  0.00     0.200 C
BRANCH  26  27
ATOM     27  O   UNL     1      25.907  17.532  -7.115  1.00  0.00    -0.372 OA
BRANCH  27  28
ATOM     28  C   UNL     1      26.312  18.808  -7.607  1.00  0.00     0.193 C
BRANCH  28  29
ATOM     29  C   UNL     1      26.441  18.773  -9.113  1.00  0.00    -0.033 C
ATOM     30  C   UNL     1      26.358  19.877  -9.888  1.00  0.00     0.004 C
ATOM     31  G   UNL     1      26.197  21.296  -9.435  1.00  0.00     0.000 C
BRANCH  29  32
ATOM     32  C   UNL     1      26.490  17.399  -9.751  1.00  0.00     0.114 C
BRANCH  32  33
ATOM     33  N   UNL     1      27.695  16.622  -9.458  1.00  0.00    -0.311 NA
ATOM     34  H   UNL     1      28.039  16.937  -8.549  1.00  0.00     0.123 HD
BRANCH  33  35
ATOM     35  C   UNL     1      27.519  15.167  -9.411  1.00  0.00     0.100 C
ATOM     36  G   UNL     1      27.703  14.412 -10.754  1.00  0.00     0.000 C
ENDBRANCH  33  35
ENDBRANCH  32  33
ENDBRANCH  29  32
ENDBRANCH  28  29
ENDBRANCH  27  28
ENDBRANCH  26  27
ENDBRANCH   6  26
BRANCH   1  37
ATOM     37  O   UNL     1      29.269  17.525  -6.302  1.00  0.00    -0.492 OA
BRANCH  37  38
ATOM     38  C   UNL     1      30.307  17.841  -5.356  1.00  0.00     0.245 C
BRANCH  38  39
ATOM     39  C   UNL     1      31.400  18.641  -6.086  1.00  0.00     0.126 C
BRANCH  39  40
ATOM     40  N   UNL     1      32.557  19.141  -5.329  1.00  0.00    -0.296 NA
ATOM     41  C   UNL     1      33.843  18.910  -5.990  1.00  0.00     0.085 C
ATOM     42  C   UNL     1      32.559  20.572  -4.938  1.00  0.00     0.070 C
ATOM     43  C   UNL     1      34.228  20.218  -6.663  1.00  0.00     0.017 C
ATOM     44  C   UNL     1      33.320  21.279  -6.056  1.00  0.00     0.022 C
ATOM     45  G   UNL     1      31.191  21.190  -4.543  1.00  0.00     0.000 C
ENDBRANCH  39  40
ENDBRANCH  38  39
ENDBRANCH  37  38
ENDBRANCH   1  37
TORSDOF 0
ENDMDL
MODEL 5
REMARK VINA RESULT:      -7.2      1.742      2.487
REMARK SMILES Cc1cnc2nc1-c1cccc(c1)COCC=C1CNC[C@@H]3CCCN3CCOc3ccc(cc3COC1)N2
REMARK SMILES IDX 30 1 31 2 32 3 33 4 34 5 35 6 39 7 5 9 2 10 3 11 7 12 4 13
REMARK SMILES IDX 6 14 1 15 8 16 9 17 13 18 10 19 12 20 11 21 14 22 15 23
REMARK SMILES IDX 16 24 36 26 37 27 38 28 18 29 17 30 19 32 20 33 21 35 29 37
REMARK SMILES IDX 28 38 27 39 26 40 25 41 22 42 24 43 23 44
REMARK H PARENT 39 8 20 34
REMARK Flexibility Score:  100.800
ROOT
ATOM      1  C   UNL     1      28.839   8.832  -5.325  1.00  0.00     0.125 A
ATOM      2  C   UNL     1      29.852   7.902  -5.108  1.00  0.00     0.049 A
ATOM      3  C   UNL     1      30.997   8.278  -4.400  1.00  0.00     0.030 A
ATOM      4  C   UNL     1      31.164   9.586  -3.920  1.00  0.00     0.042 A
ATOM      5  C   UNL     1      30.150  10.511  -4.189  1.00  0.00     0.036 A
ATOM      6  C   UNL     1      28.974  10.150  -4.875  1.00  0.00     0.022 A
ENDROOT
BRANCH   4   7
ATOM      7  N   UNL     1      32.315   9.887  -3.184  1.00  0.00    -0.324 N
ATOM      8  H   UNL     1      32.719   9.145  -2.631  1.00  0.00     0.170 HD
BRANCH   7   9
ATOM      9  C   UNL     1      33.074  11.040  -3.005  1.00  0.00     0.227 A
ATOM     10  C   UNL     1      34.685  13.209  -2.591  1.00  0.00    -0.006 A
ATOM     11  C   UNL     1      35.114  11.911  -2.423  1.00  0.00     0.120 A
ATOM     12  C   UNL     1      33.370  13.332  -3.009  1.00  0.00     0.079 A
ATOM     13  N   UNL     1      34.341  10.827  -2.623  1.00  0.00    -0.221 NA
ATOM     14  N   UNL     1      32.566  12.262  -3.197  1.00  0.00    -0.212 NA
ATOM     15  C   UNL     1      35.602  14.365  -2.364  1.00  0.00     0.048 C
BRANCH  12  16
ATOM     16  C   UNL     1      32.735  14.623  -3.309  1.00  0.00     0.001 A
ATOM     17  C   UNL     1      31.664  15.093  -2.532  1.00  0.00     0.010 A
ATOM     18  C   UNL     1      33.197  15.426  -4.366  1.00  0.00     0.016 A
ATOM     19  C   UNL     1      31.059  16.318  -2.814  1.00  0.00     0.001 A
ATOM     20  C   UNL     1      32.605  16.668  -4.652  1.00  0.00    -0.022 A
ATOM     21  C   UNL     1      31.523  17.098  -3.872  1.00  0.00     0.006 A
BRANCH  20  22
ATOM     22  C   UNL     1      33.082  17.517  -5.808  1.00  0.00     0.196 C
BRANCH  22  23
ATOM     23  O   UNL     1      32.129  18.478  -6.259  1.00  0.00    -0.373 OA
BRANCH  23  24
ATOM     24  C   UNL     1      32.650  19.807  -6.284  1.00  0.00     0.188 C
ATOM     25  G   UNL     1      32.246  20.454  -4.995  1.00  0.00     0.000 C
ENDBRANCH  23  24
ENDBRANCH  22  23
ENDBRANCH  20  22
ENDBRANCH  12  16
ENDBRANCH   7   9
ENDBRANCH   4   7
BRANCH   6  26
ATOM     26  C   UNL     1      27.901  11.185  -5.120  1.00  0.00     0.200 C
BRANCH  26  27
ATOM     27  O   UNL     1      28.263  12.234  -6.023  1.00  0.00    -0.372 OA
BRANCH  27  28
ATOM     28  C   UNL     1      27.170  12.872  -6.681  1.00  0.00     0.193 C
BRANCH  28  29
ATOM     29  C   UNL     1      27.541  14.286  -7.064  1.00  0.00    -0.033 C
ATOM     30  C   UNL     1      27.009  14.928  -8.129  1.00  0.00     0.004 C
ATOM     31  G   UNL     1      25.951  14.422  -9.060  1.00  0.00     0.000 C
BRANCH  29  32
ATOM     32  C   UNL     1      28.690  14.911  -6.297  1.00  0.00     0.114 C
BRANCH  32  33
ATOM     33  N   UNL     1      28.358  15.365  -4.946  1.00  0.00    -0.311 NA
ATOM     34  H   UNL     1      29.225  15.357  -4.407  1.00  0.00     0.123 HD
BRANCH  33  35
ATOM     35  C   UNL     1      27.762  16.702  -4.852  1.00  0.00     0.100 C
ATOM     36  G   UNL     1      28.285  17.756  -5.864  1.00  0.00     0.000 C
ENDBRANCH  33  35
ENDBRANCH  32  33
ENDBRANCH  29  32
ENDBRANCH  28  29
ENDBRANCH  27  28
ENDBRANCH  26  27
ENDBRANCH   6  26
BRANCH   1  37
ATOM     37  O   UNL     1      27.728   8.444  -6.029  1.00  0.00    -0.492 OA
BRANCH  37  38
ATOM     38  C   UNL     1      28.084   7.491  -7.049  1.00  0.00     0.245 C
BRANCH  38  39
ATOM     39  C   UNL     1      26.791   6.867  -7.601  1.00  0.00     0.126 C
BRANCH  39  40
ATOM     40  N   UNL     1      26.253   5.648  -6.978  1.00  0.00    -0.296 NA
ATOM     41  C   UNL     1      27.262   4.838  -6.293  1.00  0.00     0.085 C
ATOM     42  C   UNL     1      25.138   5.803  -6.012  1.00  0.00     0.070 C
ATOM     43  C   UNL     1      27.147   5.161  -4.812  1.00  0.00     0.017 C
ATOM     44  C   UNL     1      25.816   5.883  -4.646  1.00  0.00     0.022 C
ATOM     45  G   UNL     1      24.091   6.905  -6.322  1.00  0.00     0.000 C
ENDBRANCH  39  40
ENDBRANCH  38  39
ENDBRANCH  37  38
ENDBRANCH   1  37
TORSDOF 0
ENDMDL
MODEL 6
REMARK VINA RESULT:      -7.2      3.170      7.650
REMARK SMILES Cc1cnc2nc1-c1cccc(c1)COCC=C1CNC[C@@H]3CCCN3CCOc3ccc(cc3COC1)N2
REMARK SMILES IDX 30 1 31 2 32 3 33 4 34 5 35 6 39 7 5 9 2 10 3 11 7 12 4 13
REMARK SMILES IDX 6 14 1 15 8 16 9 17 13 18 10 19 12 20 11 21 14 22 15 23
REMARK SMILES IDX 16 24 36 26 37 27 38 28 18 29 17 30 19 32 20 33 21 35 29 37
REMARK SMILES IDX 28 38 27 39 26 40 25 41 22 42 24 43 23 44
REMARK H PARENT 39 8 20 34
REMARK Flexibility Score:  100.800
ROOT
ATOM      1  C   UNL     1      27.117  15.468  -7.308  1.00  0.00     0.125 A
ATOM      2  C   UNL     1      26.662  14.304  -7.921  1.00  0.00     0.049 A
ATOM      3  C   UNL     1      26.665  13.100  -7.211  1.00  0.00     0.030 A
ATOM      4  C   UNL     1      27.140  13.030  -5.892  1.00  0.00     0.042 A
ATOM      5  C   UNL     1      27.630  14.207  -5.315  1.00  0.00     0.036 A
ATOM      6  C   UNL     1      27.612  15.437  -6.000  1.00  0.00     0.022 A
ENDROOT
BRANCH   4   7
ATOM      7  N   UNL     1      27.077  11.804  -5.223  1.00  0.00    -0.324 N
ATOM      8  H   UNL     1      26.287  11.647  -4.614  1.00  0.00     0.170 HD
BRANCH   7   9
ATOM      9  C   UNL     1      27.904  10.685  -5.176  1.00  0.00     0.227 A
ATOM     10  C   UNL     1      29.407   8.401  -5.160  1.00  0.00    -0.006 A
ATOM     11  C   UNL     1      28.205   8.506  -5.826  1.00  0.00     0.120 A
ATOM     12  C   UNL     1      29.809   9.558  -4.512  1.00  0.00     0.079 A
ATOM     13  N   UNL     1      27.449   9.619  -5.851  1.00  0.00    -0.221 NA
ATOM     14  N   UNL     1      29.059  10.682  -4.503  1.00  0.00    -0.212 NA
ATOM     15  C   UNL     1      30.201   7.138  -5.187  1.00  0.00     0.048 C
BRANCH  12  16
ATOM     16  C   UNL     1      31.087   9.680  -3.798  1.00  0.00     0.001 A
ATOM     17  C   UNL     1      31.534   8.657  -2.945  1.00  0.00     0.010 A
ATOM     18  C   UNL     1      31.903  10.813  -3.966  1.00  0.00     0.016 A
ATOM     19  C   UNL     1      32.747   8.770  -2.265  1.00  0.00     0.001 A
ATOM     20  C   UNL     1      33.134  10.931  -3.298  1.00  0.00    -0.022 A
ATOM     21  C   UNL     1      33.538   9.904  -2.437  1.00  0.00     0.006 A
BRANCH  20  22
ATOM     22  C   UNL     1      33.996  12.163  -3.456  1.00  0.00     0.196 C
BRANCH  22  23
ATOM     23  O   UNL     1      34.390  12.762  -2.223  1.00  0.00    -0.373 OA
BRANCH  23  24
ATOM     24  C   UNL     1      35.313  13.837  -2.399  1.00  0.00     0.188 C
ATOM     25  G   UNL     1      34.521  15.011  -2.888  1.00  0.00     0.000 C
ENDBRANCH  23  24
ENDBRANCH  22  23
ENDBRANCH  20  22
ENDBRANCH  12  16
ENDBRANCH   7   9
ENDBRANCH   4   7
BRANCH   6  26
ATOM     26  C   UNL     1      28.135  16.681  -5.321  1.00  0.00     0.200 C
BRANCH  26  27
ATOM     27  O   UNL     1      29.294  17.262  -5.925  1.00  0.00    -0.372 OA
BRANCH  27  28
ATOM     28  C   UNL     1      30.264  16.329  -6.399  1.00  0.00     0.193 C
BRANCH  28  29
ATOM     29  C   UNL     1      31.281  16.037  -5.320  1.00  0.00    -0.033 C
ATOM     30  C   UNL     1      31.618  14.784  -4.941  1.00  0.00     0.004 C
ATOM     31  G   UNL     1      31.129  13.494  -5.525  1.00  0.00     0.000 C
BRANCH  29  32
ATOM     32  C   UNL     1      31.792  17.230  -4.537  1.00  0.00     0.114 C
BRANCH  32  33
ATOM     33  N   UNL     1      33.044  17.805  -5.030  1.00  0.00    -0.311 NA
ATOM     34  H   UNL     1      33.541  17.060  -5.521  1.00  0.00     0.123 HD
BRANCH  33  35
ATOM     35  C   UNL     1      32.906  18.950  -5.936  1.00  0.00     0.100 C
ATOM     36  G   UNL     1      33.247  20.341  -5.338  1.00  0.00     0.000 C
ENDBRANCH  33  35
ENDBRANCH  32  33
ENDBRANCH  29  32
ENDBRANCH  28  29
ENDBRANCH  27  28
ENDBRANCH  26  27
ENDBRANCH   6  26
BRANCH   1  37
ATOM     37  O   UNL     1      27.114  16.636  -8.027  1.00  0.00    -0.492 OA
BRANCH  37  38
ATOM     38  C   UNL     1      25.812  16.876  -8.594  1.00  0.00     0.245 C
BRANCH  38  39
ATOM     39  C   UNL     1      25.620  18.396  -8.741  1.00  0.00     0.126 C
BRANCH  39  40
ATOM     40  N   UNL     1      26.765  19.235  -9.123  1.00  0.00    -0.296 NA
ATOM     41  C   UNL     1      26.609  19.895 -10.420  1.00  0.00     0.085 C
ATOM     42  C   UNL     1      27.185  20.300  -8.179  1.00  0.00     0.070 C
ATOM     43  C   UNL     1      26.174  21.323 -10.133  1.00  0.00     0.017 C
ATOM     44  C   UNL     1      26.448  21.551  -8.652  1.00  0.00     0.022 C
ATOM     45  G   UNL     1      27.078  19.974  -6.666  1.00  0.00     0.000 C
ENDBRANCH  39  40
ENDBRANCH  38  39
ENDBRANCH  37  38
ENDBRANCH   1  37
TORSDOF 0
ENDMDL
MODEL 7
REMARK VINA RESULT:      -7.1      3.437      8.629
REMARK SMILES Cc1cnc2nc1-c1cccc(c1)COCC=C1CNC[C@@H]3CCCN3CCOc3ccc(cc3COC1)N2
REMARK SMILES IDX 30 1 31 2 32 3 33 4 34 5 35 6 39 7 5 9 2 10 3 11 7 12 4 13
REMARK SMILES IDX 6 14 1 15 8 16 9 17 13 18 10 19 12 20 11 21 14 22 15 23
REMARK SMILES IDX 16 24 36 26 37 27 38 28 18 29 17 30 19 32 20 33 21 35 29 37
REMARK SMILES IDX 28 38 27 39 26 40 25 41 22 42 24 43 23 44
REMARK H PARENT 39 8 20 34
REMARK Flexibility Score:  100.800
ROOT
ATOM      1  C   UNL     1      29.990  16.435  -4.857  1.00  0.00     0.125 A
ATOM      2  C   UNL     1      30.339  15.506  -3.880  1.00  0.00     0.049 A
ATOM      3  C   UNL     1      29.835  14.204  -3.950  1.00  0.00     0.030 A
ATOM      4  C   UNL     1      28.959  13.813  -4.975  1.00  0.00     0.042 A
ATOM      5  C   UNL     1      28.592  14.778  -5.919  1.00  0.00     0.036 A
ATOM      6  C   UNL     1      29.108  16.088  -5.887  1.00  0.00     0.022 A
ENDROOT
BRANCH   4   7
ATOM      7  N   UNL     1      28.523  12.485  -5.012  1.00  0.00    -0.324 N
ATOM      8  H   UNL     1      27.539  12.324  -5.170  1.00  0.00     0.170 HD
BRANCH   7   9
ATOM      9  C   UNL     1      29.156  11.255  -4.854  1.00  0.00     0.227 A
ATOM     10  C   UNL     1      30.268   8.769  -4.618  1.00  0.00    -0.006 A
ATOM     11  C   UNL     1      29.116   9.013  -5.335  1.00  0.00     0.120 A
ATOM     12  C   UNL     1      30.835   9.892  -4.039  1.00  0.00     0.079 A
ATOM     13  N   UNL     1      28.551  10.228  -5.468  1.00  0.00    -0.221 NA
ATOM     14  N   UNL     1      30.278  11.119  -4.140  1.00  0.00    -0.212 NA
ATOM     15  C   UNL     1      30.847   7.396  -4.525  1.00  0.00     0.048 C
BRANCH  12  16
ATOM     16  C   UNL     1      32.097   9.863  -3.288  1.00  0.00     0.001 A
ATOM     17  C   UNL     1      32.395   8.794  -2.428  1.00  0.00     0.010 A
ATOM     18  C   UNL     1      33.045  10.892  -3.427  1.00  0.00     0.016 A
ATOM     19  C   UNL     1      33.593   8.762  -1.712  1.00  0.00     0.001 A
ATOM     20  C   UNL     1      34.261  10.865  -2.723  1.00  0.00    -0.022 A
ATOM     21  C   UNL     1      34.517   9.796  -1.855  1.00  0.00     0.006 A
BRANCH  20  22
ATOM     22  C   UNL     1      35.266  11.987  -2.850  1.00  0.00     0.196 C
BRANCH  22  23
ATOM     23  O   UNL     1      35.002  13.106  -2.005  1.00  0.00    -0.373 OA
BRANCH  23  24
ATOM     24  C   UNL     1      35.189  14.357  -2.667  1.00  0.00     0.188 C
ATOM     25  G   UNL     1      33.825  14.872  -3.011  1.00  0.00     0.000 C
ENDBRANCH  23  24
ENDBRANCH  22  23
ENDBRANCH  20  22
ENDBRANCH  12  16
ENDBRANCH   7   9
ENDBRANCH   4   7
BRANCH   6  26
ATOM     26  C   UNL     1      28.694  17.085  -6.944  1.00  0.00     0.200 C
BRANCH  26  27
ATOM     27  O   UNL     1      27.301  17.411  -6.959  1.00  0.00    -0.372 OA
BRANCH  27  28
ATOM     28  C   UNL     1      26.995  18.780  -6.699  1.00  0.00     0.193 C
BRANCH  28  29
ATOM     29  C   UNL     1      27.145  19.599  -7.960  1.00  0.00    -0.033 C
ATOM     30  C   UNL     1      27.684  20.839  -7.977  1.00  0.00     0.004 C
ATOM     31  G   UNL     1      28.274  21.590  -6.822  1.00  0.00     0.000 C
BRANCH  29  32
ATOM     32  C   UNL     1      26.491  19.039  -9.207  1.00  0.00     0.114 C
BRANCH  32  33
ATOM     33  N   UNL     1      25.775  20.020 -10.025  1.00  0.00    -0.311 NA
ATOM     34  H   UNL     1      25.935  20.935  -9.601  1.00  0.00     0.123 HD
BRANCH  33  35
ATOM     35  C   UNL     1      26.171  20.084 -11.435  1.00  0.00     0.100 C
ATOM     36  G   UNL     1      27.697  20.089 -11.718  1.00  0.00     0.000 C
ENDBRANCH  33  35
ENDBRANCH  32  33
ENDBRANCH  29  32
ENDBRANCH  28  29
ENDBRANCH  27  28
ENDBRANCH  26  27
ENDBRANCH   6  26
BRANCH   1  37
ATOM     37  O   UNL     1      30.489  17.709  -4.763  1.00  0.00    -0.492 OA
BRANCH  37  38
ATOM     38  C   UNL     1      31.768  17.799  -5.421  1.00  0.00     0.245 C
BRANCH  38  39
ATOM     39  C   UNL     1      32.463  19.089  -4.952  1.00  0.00     0.126 C
BRANCH  39  40
ATOM     40  N   UNL     1      32.119  20.368  -5.591  1.00  0.00    -0.296 NA
ATOM     41  C   UNL     1      31.290  21.243  -4.759  1.00  0.00     0.085 C
ATOM     42  C   UNL     1      33.233  21.217  -6.079  1.00  0.00     0.070 C
ATOM     43  C   UNL     1      32.227  22.267  -4.137  1.00  0.00     0.017 C
ATOM     44  C   UNL     1      33.526  22.174  -4.926  1.00  0.00     0.022 C
ATOM     45  G   UNL     1      34.458  20.481  -6.685  1.00  0.00     0.000 C
ENDBRANCH  39  40
ENDBRANCH  38  39
ENDBRANCH  37  38
ENDBRANCH   1  37
TORSDOF 0
ENDMDL
MODEL 8
REMARK VINA RESULT:      -7.1      3.360      7.681
REMARK SMILES Cc1cnc2nc1-c1cccc(c1)COCC=C1CNC[C@@H]3CCCN3CCOc3ccc(cc3COC1)N2
REMARK SMILES IDX 30 1 31 2 32 3 33 4 34 5 35 6 39 7 5 9 2 10 3 11 7 12 4 13
REMARK SMILES IDX 6 14 1 15 8 16 9 17 13 18 10 19 12 20 11 21 14 22 15 23
REMARK SMILES IDX 16 24 36 26 37 27 38 28 18 29 17 30 19 32 20 33 21 35 29 37
REMARK SMILES IDX 28 38 27 39 26 40 25 41 22 42 24 43 23 44
REMARK H PARENT 39 8 20 34
REMARK Flexibility Score:  100.800
ROOT
ATOM      1  C   UNL     1      29.280  16.043  -5.069  1.00  0.00     0.125 A
ATOM      2  C   UNL     1      29.457  15.139  -4.025  1.00  0.00     0.049 A
ATOM      3  C   UNL     1      29.162  13.787  -4.221  1.00  0.00     0.030 A
ATOM      4  C   UNL     1      28.664  13.317  -5.446  1.00  0.00     0.042 A
ATOM      5  C   UNL     1      28.455  14.254  -6.465  1.00  0.00     0.036 A
ATOM      6  C   UNL     1      28.771  15.616  -6.302  1.00  0.00     0.022 A
ENDROOT
BRANCH   4   7
ATOM      7  N   UNL     1      28.427  11.947  -5.590  1.00  0.00    -0.324 N
ATOM      8  H   UNL     1      27.563  11.669  -6.034  1.00  0.00     0.170 HD
BRANCH   7   9
ATOM      9  C   UNL     1      29.131  10.801  -5.230  1.00  0.00     0.227 A
ATOM     10  C   UNL     1      30.387   8.460  -4.582  1.00  0.00    -0.006 A
ATOM     11  C   UNL     1      29.226   8.511  -5.324  1.00  0.00     0.120 A
ATOM     12  C   UNL     1      30.883   9.697  -4.205  1.00  0.00     0.079 A
ATOM     13  N   UNL     1      28.591   9.650  -5.657  1.00  0.00    -0.221 NA
ATOM     14  N   UNL     1      30.255  10.855  -4.509  1.00  0.00    -0.212 NA
ATOM     15  C   UNL     1      31.046   7.160  -4.261  1.00  0.00     0.048 C
BRANCH  12  16
ATOM     16  C   UNL     1      32.142   9.870  -3.467  1.00  0.00     0.001 A
ATOM     17  C   UNL     1      32.763   8.777  -2.842  1.00  0.00     0.010 A
ATOM     18  C   UNL     1      32.764  11.129  -3.384  1.00  0.00     0.016 A
ATOM     19  C   UNL     1      33.958   8.937  -2.139  1.00  0.00     0.001 A
ATOM     20  C   UNL     1      33.975  11.300  -2.692  1.00  0.00    -0.022 A
ATOM     21  C   UNL     1      34.556  10.193  -2.060  1.00  0.00     0.006 A
BRANCH  20  22
ATOM     22  C   UNL     1      34.627  12.659  -2.579  1.00  0.00     0.196 C
BRANCH  22  23
ATOM     23  O   UNL     1      33.734  13.754  -2.772  1.00  0.00    -0.373 OA
BRANCH  23  24
ATOM     24  C   UNL     1      34.406  15.010  -2.860  1.00  0.00     0.188 C
ATOM     25  G   UNL     1      35.849  14.750  -2.550  1.00  0.00     0.000 C
ENDBRANCH  23  24
ENDBRANCH  22  23
ENDBRANCH  20  22
ENDBRANCH  12  16
ENDBRANCH   7   9
ENDBRANCH   4   7
BRANCH   6  26
ATOM     26  C   UNL     1      28.546  16.580  -7.442  1.00  0.00     0.200 C
BRANCH  26  27
ATOM     27  O   UNL     1      27.179  16.930  -7.681  1.00  0.00    -0.372 OA
BRANCH  27  28
ATOM     28  C   UNL     1      26.580  16.300  -8.811  1.00  0.00     0.193 C
BRANCH  28  29
ATOM     29  C   UNL     1      25.173  16.816  -9.015  1.00  0.00    -0.033 C
ATOM     30  C   UNL     1      24.164  16.046  -9.482  1.00  0.00     0.004 C
ATOM     31  G   UNL     1      24.211  14.586  -9.812  1.00  0.00     0.000 C
BRANCH  29  32
ATOM     32  C   UNL     1      24.973  18.308  -8.843  1.00  0.00     0.114 C
BRANCH  32  33
ATOM     33  N   UNL     1      25.065  18.790  -7.464  1.00  0.00    -0.311 NA
ATOM     34  H   UNL     1      25.689  18.153  -6.966  1.00  0.00     0.123 HD
BRANCH  33  35
ATOM     35  C   UNL     1      25.566  20.158  -7.299  1.00  0.00     0.100 C
ATOM     36  G   UNL     1      27.007  20.295  -6.739  1.00  0.00     0.000 C
ENDBRANCH  33  35
ENDBRANCH  32  33
ENDBRANCH  29  32
ENDBRANCH  28  29
ENDBRANCH  27  28
ENDBRANCH  26  27
ENDBRANCH   6  26
BRANCH   1  37
ATOM     37  O   UNL     1      29.567  17.366  -4.853  1.00  0.00    -0.492 OA
BRANCH  37  38
ATOM     38  C   UNL     1      30.715  17.498  -3.992  1.00  0.00     0.245 C
BRANCH  38  39
ATOM     39  C   UNL     1      31.966  17.653  -4.874  1.00  0.00     0.126 C
BRANCH  39  40
ATOM     40  N   UNL     1      31.955  18.620  -5.981  1.00  0.00    -0.296 NA
ATOM     41  C   UNL     1      31.775  20.008  -5.553  1.00  0.00     0.085 C
ATOM     42  C   UNL     1      33.121  18.631  -6.898  1.00  0.00     0.070 C
ATOM     43  C   UNL     1      33.156  20.644  -5.545  1.00  0.00     0.017 C
ATOM     44  C   UNL     1      34.054  19.696  -6.327  1.00  0.00     0.022 C
ATOM     45  G   UNL     1      33.767  17.258  -7.224  1.00  0.00     0.000 C
ENDBRANCH  39  40
ENDBRANCH  38  39
ENDBRANCH  37  38
ENDBRANCH   1  37
TORSDOF 0
ENDMDL
MODEL 9
REMARK VINA RESULT:      -7.1      3.167      7.910
REMARK SMILES Cc1cnc2nc1-c1cccc(c1)COCC=C1CNC[C@@H]3CCCN3CCOc3ccc(cc3COC1)N2
REMARK SMILES IDX 30 1 31 2 32 3 33 4 34 5 35 6 39 7 5 9 2 10 3 11 7 12 4 13
REMARK SMILES IDX 6 14 1 15 8 16 9 17 13 18 10 19 12 20 11 21 14 22 15 23
REMARK SMILES IDX 16 24 36 26 37 27 38 28 18 29 17 30 19 32 20 33 21 35 29 37
REMARK SMILES IDX 28 38 27 39 26 40 25 41 22 42 24 43 23 44
REMARK H PARENT 39 8 20 34
REMARK Flexibility Score:  100.800
ROOT
ATOM      1  C   UNL     1      28.207  16.052  -5.803  1.00  0.00     0.125 A
ATOM      2  C   UNL     1      28.826  15.237  -4.858  1.00  0.00     0.049 A
ATOM      3  C   UNL     1      28.460  13.891  -4.758  1.00  0.00     0.030 A
ATOM      4  C   UNL     1      27.460  13.342  -5.576  1.00  0.00     0.042 A
ATOM      5  C   UNL     1      26.826  14.194  -6.488  1.00  0.00     0.036 A
ATOM      6  C   UNL     1      27.195  15.546  -6.627  1.00  0.00     0.022 A
ENDROOT
BRANCH   4   7
ATOM      7  N   UNL     1      27.170  11.980  -5.455  1.00  0.00    -0.324 N
ATOM      8  H   UNL     1      26.199  11.717  -5.378  1.00  0.00     0.170 HD
BRANCH   7   9
ATOM      9  C   UNL     1      27.949  10.827  -5.391  1.00  0.00     0.227 A
ATOM     10  C   UNL     1      29.356   8.484  -5.345  1.00  0.00    -0.006 A
ATOM     11  C   UNL     1      28.172   8.637  -6.033  1.00  0.00     0.120 A
ATOM     12  C   UNL     1      29.793   9.624  -4.691  1.00  0.00     0.079 A
ATOM     13  N   UNL     1      27.463   9.780  -6.073  1.00  0.00    -0.221 NA
ATOM     14  N   UNL     1      29.091  10.778  -4.698  1.00  0.00    -0.212 NA
ATOM     15  C   UNL     1      30.098   7.189  -5.356  1.00  0.00     0.048 C
BRANCH  12  16
ATOM     16  C   UNL     1      31.063   9.695  -3.954  1.00  0.00     0.001 A
ATOM     17  C   UNL     1      31.591   8.556  -3.325  1.00  0.00     0.010 A
ATOM     18  C   UNL     1      31.788  10.897  -3.878  1.00  0.00     0.016 A
ATOM     19  C   UNL     1      32.796   8.619  -2.623  1.00  0.00     0.001 A
ATOM     20  C   UNL     1      33.009  10.970  -3.187  1.00  0.00    -0.022 A
ATOM     21  C   UNL     1      33.497   9.822  -2.550  1.00  0.00     0.006 A
BRANCH  20  22
ATOM     22  C   UNL     1      33.773  12.271  -3.080  1.00  0.00     0.196 C
BRANCH  22  23
ATOM     23  O   UNL     1      35.160  12.111  -2.789  1.00  0.00    -0.373 OA
BRANCH  23  24
ATOM     24  C   UNL     1      35.511  12.579  -1.487  1.00  0.00     0.188 C
ATOM     25  G   UNL     1      36.202  11.446  -0.791  1.00  0.00     0.000 C
ENDBRANCH  23  24
ENDBRANCH  22  23
ENDBRANCH  20  22
ENDBRANCH  12  16
ENDBRANCH   7   9
ENDBRANCH   4   7
BRANCH   6  26
ATOM     26  C   UNL     1      26.492  16.415  -7.642  1.00  0.00     0.200 C
BRANCH  26  27
ATOM     27  O   UNL     1      27.237  16.682  -8.834  1.00  0.00    -0.372 OA
BRANCH  27  28
ATOM     28  C   UNL     1      27.634  15.529  -9.573  1.00  0.00     0.193 C
BRANCH  28  29
ATOM     29  C   UNL     1      26.748  15.351 -10.785  1.00  0.00    -0.033 C
ATOM     30  C   UNL     1      26.938  16.020 -11.944  1.00  0.00     0.004 C
ATOM     31  G   UNL     1      28.046  16.974 -12.272  1.00  0.00     0.000 C
BRANCH  29  32
ATOM     32  C   UNL     1      25.503  14.509 -10.590  1.00  0.00     0.114 C
BRANCH  32  33
ATOM     33  N   UNL     1      25.716  13.242  -9.890  1.00  0.00    -0.311 NA
ATOM     34  H   UNL     1      26.512  13.376  -9.265  1.00  0.00     0.123 HD
BRANCH  33  35
ATOM     35  C   UNL     1      24.581  12.751  -9.101  1.00  0.00     0.100 C
ATOM     36  G   UNL     1      23.685  13.835  -8.445  1.00  0.00     0.000 C
ENDBRANCH  33  35
ENDBRANCH  32  33
ENDBRANCH  29  32
ENDBRANCH  28  29
ENDBRANCH  27  28
ENDBRANCH  26  27
ENDBRANCH   6  26
BRANCH   1  37
ATOM     37  O   UNL     1      28.575  17.370  -5.877  1.00  0.00    -0.492 OA
BRANCH  37  38
ATOM     38  C   UNL     1      29.287  17.764  -4.689  1.00  0.00     0.245 C
BRANCH  38  39
ATOM     39  C   UNL     1      30.460  18.669  -5.104  1.00  0.00     0.126 C
BRANCH  39  40
ATOM     40  N   UNL     1      31.839  18.227  -4.852  1.00  0.00    -0.296 NA
ATOM     41  C   UNL     1      31.998  16.772  -4.817  1.00  0.00     0.085 C
ATOM     42  C   UNL     1      32.900  18.724  -5.761  1.00  0.00     0.070 C
ATOM     43  C   UNL     1      32.542  16.361  -6.175  1.00  0.00     0.017 C
ATOM     44  C   UNL     1      33.031  17.645  -6.833  1.00  0.00     0.022 C
ATOM     45  G   UNL     1      32.755  20.182  -6.273  1.00  0.00     0.000 C
ENDBRANCH  39  40
ENDBRANCH  38  39
ENDBRANCH  37  38
ENDBRANCH   1  37
TORSDOF 0
ENDMDL
