MODEL 1
REMARK VINA RESULT:      -7.4      0.000      0.000
REMARK SMILES C1=C2\CNC[C@H]3CCCN3CCOc3ccc(cc3COC2)Nc2nccc(n2)-c2ccc(s2)COC/1
REMARK SMILES IDX 14 1 15 2 16 3 17 4 18 5 19 6 20 7 21 8 22 9 2 10 1 11 3 13
REMARK SMILES IDX 4 14 5 16 13 18 12 19 11 20 10 21 9 22 6 23 8 24 7 25 23 27
REMARK SMILES IDX 24 29 25 30 29 31 26 32 28 33 27 34 30 35 31 36 34 37 32 38
REMARK SMILES IDX 33 39 35 40 36 41 37 42
REMARK H PARENT 4 15 23 28
REMARK Flexibility Score:   91.800
ROOT
ATOM      1  C   UNL     1      31.173  15.797  -4.056  1.00  0.00     0.125 A
ATOM      2  C   UNL     1      32.097  15.969  -3.025  1.00  0.00     0.049 A
ATOM      3  C   UNL     1      33.026  14.960  -2.741  1.00  0.00     0.030 A
ATOM      4  C   UNL     1      33.054  13.774  -3.486  1.00  0.00     0.042 A
ATOM      5  C   UNL     1      32.152  13.652  -4.549  1.00  0.00     0.036 A
ATOM      6  C   UNL     1      31.212  14.652  -4.855  1.00  0.00     0.022 A
ENDROOT
BRANCH   6   7
ATOM      7  C   UNL     1      30.256  14.421  -5.997  1.00  0.00     0.200 C
BRANCH   7   8
ATOM      8  O   UNL     1      29.344  13.343  -5.750  1.00  0.00    -0.372 OA
BRANCH   8   9
ATOM      9  C   UNL     1      28.191  13.769  -5.018  1.00  0.00     0.193 C
BRANCH   9  10
ATOM     10  C   UNL     1      26.897  13.481  -5.757  1.00  0.00    -0.033 C
ATOM     11  C   UNL     1      25.750  14.128  -5.453  1.00  0.00     0.004 C
ATOM     12  G   UNL     1      24.440  14.087  -6.171  1.00  0.00     0.000 C
BRANCH  10  13
ATOM     13  C   UNL     1      27.029  12.490  -6.898  1.00  0.00     0.114 C
BRANCH  13  14
ATOM     14  N   UNL     1      27.707  13.004  -8.083  1.00  0.00    -0.311 NA
ATOM     15  H   UNL     1      28.696  13.152  -7.898  1.00  0.00     0.123 HD
BRANCH  14  16
ATOM     16  C   UNL     1      27.113  14.226  -8.643  1.00  0.00     0.100 C
ATOM     17  G   UNL     1      25.900  13.944  -9.582  1.00  0.00     0.000 C
ENDBRANCH  14  16
ENDBRANCH  13  14
ENDBRANCH  10  13
ENDBRANCH   9  10
ENDBRANCH   8   9
ENDBRANCH   7   8
ENDBRANCH   6   7
BRANCH   1  18
ATOM     18  O   UNL     1      30.222  16.759  -4.288  1.00  0.00    -0.492 OA
BRANCH  18  19
ATOM     19  C   UNL     1      30.840  18.025  -4.601  1.00  0.00     0.245 C
BRANCH  19  20
ATOM     20  C   UNL     1      31.125  18.086  -6.112  1.00  0.00     0.126 C
BRANCH  20  21
ATOM     21  N   UNL     1      31.995  19.218  -6.442  1.00  0.00    -0.296 NA
ATOM     22  C   UNL     1      31.528  20.483  -5.885  1.00  0.00     0.085 C
ATOM     23  C   UNL     1      33.392  19.062  -5.988  1.00  0.00     0.070 C
ATOM     24  C   UNL     1      32.709  21.401  -6.137  1.00  0.00     0.017 C
ATOM     25  C   UNL     1      33.934  20.496  -6.066  1.00  0.00     0.022 C
ATOM     26  G   UNL     1      34.254  18.059  -6.815  1.00  0.00     0.000 C
ENDBRANCH  20  21
ENDBRANCH  19  20
ENDBRANCH  18  19
ENDBRANCH   1  18
BRANCH   4  27
ATOM     27  N   UNL     1      33.900  12.731  -3.093  1.00  0.00    -0.324 N
ATOM     28  H   UNL     1      34.862  12.949  -2.889  1.00  0.00     0.170 HD
BRANCH  27  29
ATOM     29  C   UNL     1      33.653  11.370  -2.919  1.00  0.00     0.227 A
ATOM     30  N   UNL     1      34.469  10.720  -2.074  1.00  0.00    -0.221 NA
ATOM     31  N   UNL     1      32.626  10.777  -3.539  1.00  0.00    -0.212 NA
ATOM     32  C   UNL     1      34.241   9.405  -1.891  1.00  0.00     0.117 A
ATOM     33  C   UNL     1      32.420   9.466  -3.321  1.00  0.00     0.086 A
ATOM     34  C   UNL     1      33.224   8.714  -2.500  1.00  0.00     0.050 A
BRANCH  33  35
ATOM     35  C   UNL     1      31.289   8.887  -4.048  1.00  0.00     0.053 A
ATOM     36  C   UNL     1      30.958   7.558  -4.239  1.00  0.00     0.022 A
ATOM     37  S   UNL     1      30.143   9.919  -4.802  1.00  0.00    -0.136 S
ATOM     38  C   UNL     1      29.793   7.396  -5.048  1.00  0.00     0.018 A
ATOM     39  C   UNL     1      29.252   8.603  -5.442  1.00  0.00     0.031 A
BRANCH  39  40
ATOM     40  C   UNL     1      28.046   8.851  -6.296  1.00  0.00     0.207 C
BRANCH  40  41
ATOM     41  O   UNL     1      28.400   8.572  -7.654  1.00  0.00    -0.372 OA
BRANCH  41  42
ATOM     42  C   UNL     1      27.573   9.238  -8.612  1.00  0.00     0.188 C
ATOM     43  G   UNL     1      28.153   9.094  -9.982  1.00  0.00     0.000 C
ENDBRANCH  41  42
ENDBRANCH  40  41
ENDBRANCH  39  40
ENDBRANCH  33  35
ENDBRANCH  27  29
ENDBRANCH   4  27
TORSDOF 0
ENDMDL
MODEL 2
REMARK VINA RESULT:      -7.3      1.457      1.606
REMARK SMILES C1=C2\CNC[C@H]3CCCN3CCOc3ccc(cc3COC2)Nc2nccc(n2)-c2ccc(s2)COC/1
REMARK SMILES IDX 14 1 15 2 16 3 17 4 18 5 19 6 20 7 21 8 22 9 2 10 1 11 3 13
REMARK SMILES IDX 4 14 5 16 13 18 12 19 11 20 10 21 9 22 6 23 8 24 7 25 23 27
REMARK SMILES IDX 24 29 25 30 29 31 26 32 28 33 27 34 30 35 31 36 34 37 32 38
REMARK SMILES IDX 33 39 35 40 36 41 37 42
REMARK H PARENT 4 15 23 28
REMARK Flexibility Score:   91.800
ROOT
ATOM      1  C   UNL     1      31.199  15.816  -3.896  1.00  0.00     0.125 A
ATOM      2  C   UNL     1      32.564  15.978  -3.659  1.00  0.00     0.049 A
ATOM      3  C   UNL     1      33.390  14.855  -3.522  1.00  0.00     0.030 A
ATOM      4  C   UNL     1      32.870  13.559  -3.631  1.00  0.00     0.042 A
ATOM      5  C   UNL     1      31.507  13.427  -3.923  1.00  0.00     0.036 A
ATOM      6  C   UNL     1      30.659  14.539  -4.068  1.00  0.00     0.022 A
ENDROOT
BRANCH   6   7
ATOM      7  C   UNL     1      29.197  14.301  -4.349  1.00  0.00     0.200 C
BRANCH   7   8
ATOM      8  O   UNL     1      28.757  14.916  -5.567  1.00  0.00    -0.372 OA
BRANCH   8   9
ATOM      9  C   UNL     1      27.455  15.493  -5.440  1.00  0.00     0.193 C
BRANCH   9  10
ATOM     10  C   UNL     1      26.537  15.108  -6.587  1.00  0.00    -0.033 C
ATOM     11  C   UNL     1      25.692  14.057  -6.494  1.00  0.00     0.004 C
ATOM     12  G   UNL     1      24.621  13.638  -7.448  1.00  0.00     0.000 C
BRANCH  10  13
ATOM     13  C   UNL     1      26.594  16.042  -7.781  1.00  0.00     0.114 C
BRANCH  13  14
ATOM     14  N   UNL     1      27.673  17.023  -7.743  1.00  0.00    -0.311 NA
ATOM     15  H   UNL     1      28.395  16.741  -7.085  1.00  0.00     0.123 HD
BRANCH  14  16
ATOM     16  C   UNL     1      27.238  18.397  -7.450  1.00  0.00     0.100 C
ATOM     17  G   UNL     1      26.679  19.142  -8.701  1.00  0.00     0.000 C
ENDBRANCH  14  16
ENDBRANCH  13  14
ENDBRANCH  10  13
ENDBRANCH   9  10
ENDBRANCH   8   9
ENDBRANCH   7   8
ENDBRANCH   6   7
BRANCH   1  18
ATOM     18  O   UNL     1      30.382  16.916  -3.964  1.00  0.00    -0.492 OA
BRANCH  18  19
ATOM     19  C   UNL     1      31.127  18.083  -4.373  1.00  0.00     0.245 C
BRANCH  19  20
ATOM     20  C   UNL     1      30.961  18.278  -5.891  1.00  0.00     0.126 C
BRANCH  20  21
ATOM     21  N   UNL     1      31.977  19.191  -6.422  1.00  0.00    -0.296 NA
ATOM     22  C   UNL     1      31.939  20.514  -5.807  1.00  0.00     0.085 C
ATOM     23  C   UNL     1      33.365  18.709  -6.268  1.00  0.00     0.070 C
ATOM     24  C   UNL     1      33.218  21.146  -6.322  1.00  0.00     0.017 C
ATOM     25  C   UNL     1      34.191  19.984  -6.490  1.00  0.00     0.022 C
ATOM     26  G   UNL     1      33.783  17.559  -7.234  1.00  0.00     0.000 C
ENDBRANCH  20  21
ENDBRANCH  19  20
ENDBRANCH  18  19
ENDBRANCH   1  18
BRANCH   4  27
ATOM     27  N   UNL     1      33.690  12.460  -3.355  1.00  0.00    -0.324 N
ATOM     28  H   UNL     1      34.687  12.602  -3.338  1.00  0.00     0.170 HD
BRANCH  27  29
ATOM     29  C   UNL     1      33.375  11.129  -3.081  1.00  0.00     0.227 A
ATOM     30  N   UNL     1      34.077  10.541  -2.100  1.00  0.00    -0.221 NA
ATOM     31  N   UNL     1      32.393  10.509  -3.747  1.00  0.00    -0.212 NA
ATOM     32  C   UNL     1      33.781   9.256  -1.820  1.00  0.00     0.117 A
ATOM     33  C   UNL     1      32.116   9.231  -3.430  1.00  0.00     0.086 A
ATOM     34  C   UNL     1      32.805   8.540  -2.464  1.00  0.00     0.050 A
BRANCH  33  35
ATOM     35  C   UNL     1      31.043   8.618  -4.214  1.00  0.00     0.053 A
ATOM     36  C   UNL     1      30.768   7.279  -4.425  1.00  0.00     0.022 A
ATOM     37  S   UNL     1      29.899   9.613  -5.018  1.00  0.00    -0.136 S
ATOM     38  C   UNL     1      29.650   7.081  -5.291  1.00  0.00     0.018 A
ATOM     39  C   UNL     1      29.087   8.271  -5.706  1.00  0.00     0.031 A
BRANCH  39  40
ATOM     40  C   UNL     1      27.916   8.482  -6.616  1.00  0.00     0.207 C
BRANCH  40  41
ATOM     41  O   UNL     1      28.096   7.654  -7.769  1.00  0.00    -0.372 OA
BRANCH  41  42
ATOM     42  C   UNL     1      28.411   8.384  -8.957  1.00  0.00     0.188 C
ATOM     43  G   UNL     1      27.379   9.437  -9.204  1.00  0.00     0.000 C
ENDBRANCH  41  42
ENDBRANCH  40  41
ENDBRANCH  39  40
ENDBRANCH  33  35
ENDBRANCH  27  29
ENDBRANCH   4  27
TORSDOF 0
ENDMDL
MODEL 3
REMARK VINA RESULT:      -7.1      1.349      1.803
REMARK SMILES C1=C2\CNC[C@H]3CCCN3CCOc3ccc(cc3COC2)Nc2nccc(n2)-c2ccc(s2)COC/1
REMARK SMILES IDX 14 1 15 2 16 3 17 4 18 5 19 6 20 7 21 8 22 9 2 10 1 11 3 13
REMARK SMILES IDX 4 14 5 16 13 18 12 19 11 20 10 21 9 22 6 23 8 24 7 25 23 27
REMARK SMILES IDX 24 29 25 30 29 31 26 32 28 33 27 34 30 35 31 36 34 37 32 38
REMARK SMILES IDX 33 39 35 40 36 41 37 42
REMARK H PARENT 4 15 23 28
REMARK Flexibility Score:   91.800
ROOT
ATOM      1  C   UNL     1      31.017  15.817  -4.175  1.00  0.00     0.125 A
ATOM      2  C   UNL     1      32.388  16.074  -4.133  1.00  0.00     0.049 A
ATOM      3  C   UNL     1      33.286  15.039  -3.841  1.00  0.00     0.030 A
ATOM      4  C   UNL     1      32.832  13.736  -3.599  1.00  0.00     0.042 A
ATOM      5  C   UNL     1      31.457  13.496  -3.701  1.00  0.00     0.036 A
ATOM      6  C   UNL     1      30.536  14.518  -3.996  1.00  0.00     0.022 A
ENDROOT
BRANCH   6   7
ATOM      7  C   UNL     1      29.070  14.174  -4.053  1.00  0.00     0.200 C
BRANCH   7   8
ATOM      8  O   UNL     1      28.571  14.081  -5.394  1.00  0.00    -0.372 OA
BRANCH   8   9
ATOM      9  C   UNL     1      27.156  14.279  -5.459  1.00  0.00     0.193 C
BRANCH   9  10
ATOM     10  C   UNL     1      26.780  15.514  -6.257  1.00  0.00    -0.033 C
ATOM     11  C   UNL     1      26.860  16.753  -5.722  1.00  0.00     0.004 C
ATOM     12  G   UNL     1      26.686  18.072  -6.402  1.00  0.00     0.000 C
BRANCH  10  13
ATOM     13  C   UNL     1      26.402  15.241  -7.700  1.00  0.00     0.114 C
BRANCH  13  14
ATOM     14  N   UNL     1      24.977  15.350  -7.993  1.00  0.00    -0.311 NA
ATOM     15  H   UNL     1      24.453  15.586  -7.155  1.00  0.00     0.123 HD
BRANCH  14  16
ATOM     16  C   UNL     1      24.393  14.160  -8.629  1.00  0.00     0.100 C
ATOM     17  G   UNL     1      25.299  12.896  -8.514  1.00  0.00     0.000 C
ENDBRANCH  14  16
ENDBRANCH  13  14
ENDBRANCH  10  13
ENDBRANCH   9  10
ENDBRANCH   8   9
ENDBRANCH   7   8
ENDBRANCH   6   7
BRANCH   1  18
ATOM     18  O   UNL     1      30.136  16.846  -4.395  1.00  0.00    -0.492 OA
BRANCH  18  19
ATOM     19  C   UNL     1      30.408  17.491  -5.657  1.00  0.00     0.245 C
BRANCH  19  20
ATOM     20  C   UNL     1      30.528  19.009  -5.431  1.00  0.00     0.126 C
BRANCH  20  21
ATOM     21  N   UNL     1      31.927  19.442  -5.472  1.00  0.00    -0.296 NA
ATOM     22  C   UNL     1      32.696  18.802  -6.535  1.00  0.00     0.085 C
ATOM     23  C   UNL     1      32.107  20.896  -5.656  1.00  0.00     0.070 C
ATOM     24  C   UNL     1      33.985  19.601  -6.525  1.00  0.00     0.017 C
ATOM     25  C   UNL     1      33.577  21.003  -6.085  1.00  0.00     0.022 C
ATOM     26  G   UNL     1      31.793  21.772  -4.404  1.00  0.00     0.000 C
ENDBRANCH  20  21
ENDBRANCH  19  20
ENDBRANCH  18  19
ENDBRANCH   1  18
BRANCH   4  27
ATOM     27  N   UNL     1      33.737  12.756  -3.177  1.00  0.00    -0.324 N
ATOM     28  H   UNL     1      34.683  13.036  -2.975  1.00  0.00     0.170 HD
BRANCH  27  29
ATOM     29  C   UNL     1      33.572  11.387  -2.971  1.00  0.00     0.227 A
ATOM     30  N   UNL     1      34.451  10.800  -2.144  1.00  0.00    -0.221 NA
ATOM     31  N   UNL     1      32.558  10.726  -3.544  1.00  0.00    -0.212 NA
ATOM     32  C   UNL     1      34.303   9.477  -1.930  1.00  0.00     0.117 A
ATOM     33  C   UNL     1      32.433   9.411  -3.296  1.00  0.00     0.086 A
ATOM     34  C   UNL     1      33.305   8.720  -2.491  1.00  0.00     0.050 A
BRANCH  33  35
ATOM     35  C   UNL     1      31.312   8.757  -3.972  1.00  0.00     0.053 A
ATOM     36  C   UNL     1      31.068   7.409  -4.161  1.00  0.00     0.022 A
ATOM     37  S   UNL     1      30.058   9.708  -4.656  1.00  0.00    -0.136 S
ATOM     38  C   UNL     1      29.879   7.169  -4.913  1.00  0.00     0.018 A
ATOM     39  C   UNL     1      29.233   8.336  -5.266  1.00  0.00     0.031 A
BRANCH  39  40
ATOM     40  C   UNL     1      27.971   8.503  -6.056  1.00  0.00     0.207 C
BRANCH  40  41
ATOM     41  O   UNL     1      28.290   9.214  -7.257  1.00  0.00    -0.372 OA
BRANCH  41  42
ATOM     42  C   UNL     1      27.156   9.817  -7.885  1.00  0.00     0.188 C
ATOM     43  G   UNL     1      26.106   8.787  -8.151  1.00  0.00     0.000 C
ENDBRANCH  41  42
ENDBRANCH  40  41
ENDBRANCH  39  40
ENDBRANCH  33  35
ENDBRANCH  27  29
ENDBRANCH   4  27
TORSDOF 0
ENDMDL
MODEL 4
REMARK VINA RESULT:      -7.1      2.487      4.824
REMARK SMILES C1=C2\CNC[C@H]3CCCN3CCOc3ccc(cc3COC2)Nc2nccc(n2)-c2ccc(s2)COC/1
REMARK SMILES IDX 14 1 15 2 16 3 17 4 18 5 19 6 20 7 21 8 22 9 2 10 1 11 3 13
REMARK SMILES IDX 4 14 5 16 13 18 12 19 11 20 10 21 9 22 6 23 8 24 7 25 23 27
REMARK SMILES IDX 24 29 25 30 29 31 26 32 28 33 27 34 30 35 31 36 34 37 32 38
REMARK SMILES IDX 33 39 35 40 36 41 37 42
REMARK H PARENT 4 15 23 28
REMARK Flexibility Score:   91.800
ROOT
ATOM      1  C   UNL     1      29.726  15.658  -4.864  1.00  0.00     0.125 A
ATOM      2  C   UNL     1      30.739  14.708  -4.995  1.00  0.00     0.049 A
ATOM      3  C   UNL     1      30.415  13.367  -5.236  1.00  0.00     0.030 A
ATOM      4  C   UNL     1      29.080  12.957  -5.359  1.00  0.00     0.042 A
ATOM      5  C   UNL     1      28.088  13.941  -5.277  1.00  0.00     0.036 A
ATOM      6  C   UNL     1      28.389  15.294  -5.039  1.00  0.00     0.022 A
ENDROOT
BRANCH   6   7
ATOM      7  C   UNL     1      27.254  16.279  -4.933  1.00  0.00     0.200 C
BRANCH   7   8
ATOM      8  O   UNL     1      26.328  16.182  -6.023  1.00  0.00    -0.372 OA
BRANCH   8   9
ATOM      9  C   UNL     1      26.848  16.757  -7.225  1.00  0.00     0.193 C
BRANCH   9  10
ATOM     10  C   UNL     1      26.615  15.874  -8.437  1.00  0.00    -0.033 C
ATOM     11  C   UNL     1      26.094  14.632  -8.317  1.00  0.00     0.004 C
ATOM     12  G   UNL     1      25.656  13.699  -9.400  1.00  0.00     0.000 C
BRANCH  10  13
ATOM     13  C   UNL     1      26.929  16.532  -9.767  1.00  0.00     0.114 C
BRANCH  13  14
ATOM     14  N   UNL     1      28.219  16.167 -10.343  1.00  0.00    -0.311 NA
ATOM     15  H   UNL     1      28.952  16.789 -10.012  1.00  0.00     0.123 HD
BRANCH  14  16
ATOM     16  C   UNL     1      28.237  16.111 -11.812  1.00  0.00     0.100 C
ATOM     17  G   UNL     1      28.918  14.823 -12.368  1.00  0.00     0.000 C
ENDBRANCH  14  16
ENDBRANCH  13  14
ENDBRANCH  10  13
ENDBRANCH   9  10
ENDBRANCH   8   9
ENDBRANCH   7   8
ENDBRANCH   6   7
BRANCH   1  18
ATOM     18  O   UNL     1      30.045  16.958  -4.562  1.00  0.00    -0.492 OA
BRANCH  18  19
ATOM     19  C   UNL     1      31.475  17.125  -4.462  1.00  0.00     0.245 C
BRANCH  19  20
ATOM     20  C   UNL     1      31.953  18.062  -5.586  1.00  0.00     0.126 C
BRANCH  20  21
ATOM     21  N   UNL     1      31.605  19.456  -5.297  1.00  0.00    -0.296 NA
ATOM     22  C   UNL     1      32.769  20.335  -5.224  1.00  0.00     0.085 C
ATOM     23  C   UNL     1      30.691  20.070  -6.281  1.00  0.00     0.070 C
ATOM     24  C   UNL     1      32.131  21.710  -5.188  1.00  0.00     0.017 C
ATOM     25  C   UNL     1      30.845  21.570  -5.995  1.00  0.00     0.022 C
ATOM     26  G   UNL     1      29.205  19.602  -6.194  1.00  0.00     0.000 C
ENDBRANCH  20  21
ENDBRANCH  19  20
ENDBRANCH  18  19
ENDBRANCH   1  18
BRANCH   4  27
ATOM     27  N   UNL     1      28.782  11.595  -5.462  1.00  0.00    -0.324 N
ATOM     28  H   UNL     1      27.908  11.329  -5.886  1.00  0.00     0.170 HD
BRANCH  27  29
ATOM     29  C   UNL     1      29.504  10.468  -5.070  1.00  0.00     0.227 A
ATOM     30  N   UNL     1      29.013   9.282  -5.462  1.00  0.00    -0.221 NA
ATOM     31  N   UNL     1      30.642  10.593  -4.378  1.00  0.00    -0.212 NA
ATOM     32  C   UNL     1      29.703   8.183  -5.094  1.00  0.00     0.117 A
ATOM     33  C   UNL     1      31.310   9.475  -4.041  1.00  0.00     0.086 A
ATOM     34  C   UNL     1      30.867   8.218  -4.369  1.00  0.00     0.050 A
BRANCH  33  35
ATOM     35  C   UNL     1      32.536   9.694  -3.271  1.00  0.00     0.053 A
ATOM     36  C   UNL     1      33.237   8.810  -2.472  1.00  0.00     0.022 A
ATOM     37  S   UNL     1      33.299  11.231  -3.303  1.00  0.00    -0.136 S
ATOM     38  C   UNL     1      34.369   9.418  -1.848  1.00  0.00     0.018 A
ATOM     39  C   UNL     1      34.516  10.745  -2.200  1.00  0.00     0.031 A
BRANCH  39  40
ATOM     40  C   UNL     1      35.564  11.717  -1.754  1.00  0.00     0.207 C
BRANCH  40  41
ATOM     41  O   UNL     1      35.658  12.751  -2.739  1.00  0.00    -0.372 OA
BRANCH  41  42
ATOM     42  C   UNL     1      35.425  14.063  -2.221  1.00  0.00     0.188 C
ATOM     43  G   UNL     1      34.256  14.688  -2.909  1.00  0.00     0.000 C
ENDBRANCH  41  42
ENDBRANCH  40  41
ENDBRANCH  39  40
ENDBRANCH  33  35
ENDBRANCH  27  29
ENDBRANCH   4  27
TORSDOF 0
ENDMDL
MODEL 5
REMARK VINA RESULT:      -7.1      2.651      5.002
REMARK SMILES C1=C2\CNC[C@H]3CCCN3CCOc3ccc(cc3COC2)Nc2nccc(n2)-c2ccc(s2)COC/1
REMARK SMILES IDX 14 1 15 2 16 3 17 4 18 5 19 6 20 7 21 8 22 9 2 10 1 11 3 13
REMARK SMILES IDX 4 14 5 16 13 18 12 19 11 20 10 21 9 22 6 23 8 24 7 25 23 27
REMARK SMILES IDX 24 29 25 30 29 31 26 32 28 33 27 34 30 35 31 36 34 37 32 38
REMARK SMILES IDX 33 39 35 40 36 41 37 42
REMARK H PARENT 4 15 23 28
REMARK Flexibility Score:   91.800
ROOT
ATOM      1  C   UNL     1      29.197  16.529  -6.117  1.00  0.00     0.125 A
ATOM      2  C   UNL     1      29.980  15.381  -6.238  1.00  0.00     0.049 A
ATOM      3  C   UNL     1      29.414  14.120  -6.014  1.00  0.00     0.030 A
ATOM      4  C   UNL     1      28.060  13.985  -5.679  1.00  0.00     0.042 A
ATOM      5  C   UNL     1      27.286  15.150  -5.619  1.00  0.00     0.036 A
ATOM      6  C   UNL     1      27.831  16.427  -5.842  1.00  0.00     0.022 A
ENDROOT
BRANCH   6   7
ATOM      7  C   UNL     1      26.930  17.629  -5.723  1.00  0.00     0.200 C
BRANCH   7   8
ATOM      8  O   UNL     1      25.837  17.599  -6.651  1.00  0.00    -0.372 OA
BRANCH   8   9
ATOM      9  C   UNL     1      26.242  17.966  -7.972  1.00  0.00     0.193 C
BRANCH   9  10
ATOM     10  C   UNL     1      25.775  16.970  -9.018  1.00  0.00    -0.033 C
ATOM     11  C   UNL     1      24.708  17.222  -9.808  1.00  0.00     0.004 C
ATOM     12  G   UNL     1      24.213  16.437 -10.980  1.00  0.00     0.000 C
BRANCH  10  13
ATOM     13  C   UNL     1      26.650  15.737  -9.149  1.00  0.00     0.114 C
BRANCH  13  14
ATOM     14  N   UNL     1      27.971  15.979  -9.720  1.00  0.00    -0.311 NA
ATOM     15  H   UNL     1      28.267  16.937  -9.553  1.00  0.00     0.123 HD
BRANCH  14  16
ATOM     16  C   UNL     1      28.083  15.664 -11.152  1.00  0.00     0.100 C
ATOM     17  G   UNL     1      28.085  16.931 -12.061  1.00  0.00     0.000 C
ENDBRANCH  14  16
ENDBRANCH  13  14
ENDBRANCH  10  13
ENDBRANCH   9  10
ENDBRANCH   8   9
ENDBRANCH   7   8
ENDBRANCH   6   7
BRANCH   1  18
ATOM     18  O   UNL     1      29.771  17.766  -6.272  1.00  0.00    -0.492 OA
BRANCH  18  19
ATOM     19  C   UNL     1      31.206  17.656  -6.371  1.00  0.00     0.245 C
BRANCH  19  20
ATOM     20  C   UNL     1      31.848  18.316  -5.138  1.00  0.00     0.126 C
BRANCH  20  21
ATOM     21  N   UNL     1      31.963  19.767  -5.313  1.00  0.00    -0.296 NA
ATOM     22  C   UNL     1      31.279  20.528  -4.272  1.00  0.00     0.085 C
ATOM     23  C   UNL     1      33.353  20.266  -5.337  1.00  0.00     0.070 C
ATOM     24  C   UNL     1      31.769  21.940  -4.531  1.00  0.00     0.017 C
ATOM     25  C   UNL     1      33.175  21.772  -5.096  1.00  0.00     0.022 C
ATOM     26  G   UNL     1      34.147  19.968  -6.646  1.00  0.00     0.000 C
ENDBRANCH  20  21
ENDBRANCH  19  20
ENDBRANCH  18  19
ENDBRANCH   1  18
BRANCH   4  27
ATOM     27  N   UNL     1      27.556  12.728  -5.329  1.00  0.00    -0.324 N
ATOM     28  H   UNL     1      26.598  12.667  -5.024  1.00  0.00     0.170 HD
BRANCH  27  29
ATOM     29  C   UNL     1      28.159  11.471  -5.322  1.00  0.00     0.227 A
ATOM     30  N   UNL     1      27.577  10.528  -6.080  1.00  0.00    -0.221 NA
ATOM     31  N   UNL     1      29.279  11.254  -4.622  1.00  0.00    -0.212 NA
ATOM     32  C   UNL     1      28.151   9.308  -6.088  1.00  0.00     0.117 A
ATOM     33  C   UNL     1      29.831  10.029  -4.665  1.00  0.00     0.086 A
ATOM     34  C   UNL     1      29.287   8.994  -5.386  1.00  0.00     0.050 A
BRANCH  33  35
ATOM     35  C   UNL     1      31.043   9.867  -3.860  1.00  0.00     0.053 A
ATOM     36  C   UNL     1      31.389   8.846  -2.994  1.00  0.00     0.022 A
ATOM     37  S   UNL     1      32.281  11.052  -3.938  1.00  0.00    -0.136 S
ATOM     38  C   UNL     1      32.647   9.072  -2.359  1.00  0.00     0.018 A
ATOM     39  C   UNL     1      33.241  10.250  -2.767  1.00  0.00     0.031 A
BRANCH  39  40
ATOM     40  C   UNL     1      34.547  10.837  -2.329  1.00  0.00     0.207 C
BRANCH  40  41
ATOM     41  O   UNL     1      34.792  12.010  -3.113  1.00  0.00    -0.372 OA
BRANCH  41  42
ATOM     42  C   UNL     1      34.924  13.202  -2.336  1.00  0.00     0.188 C
ATOM     43  G   UNL     1      34.104  14.300  -2.934  1.00  0.00     0.000 C
ENDBRANCH  41  42
ENDBRANCH  40  41
ENDBRANCH  39  40
ENDBRANCH  33  35
ENDBRANCH  27  29
ENDBRANCH   4  27
TORSDOF 0
ENDMDL
MODEL 6
REMARK VINA RESULT:      -7.0      1.482      2.155
REMARK SMILES C1=C2\CNC[C@H]3CCCN3CCOc3ccc(cc3COC2)Nc2nccc(n2)-c2ccc(s2)COC/1
REMARK SMILES IDX 14 1 15 2 16 3 17 4 18 5 19 6 20 7 21 8 22 9 2 10 1 11 3 13
REMARK SMILES IDX 4 14 5 16 13 18 12 19 11 20 10 21 9 22 6 23 8 24 7 25 23 27
REMARK SMILES IDX 24 29 25 30 29 31 26 32 28 33 27 34 30 35 31 36 34 37 32 38
REMARK SMILES IDX 33 39 35 40 36 41 37 42
REMARK H PARENT 4 15 23 28
REMARK Flexibility Score:   91.800
ROOT
ATOM      1  C   UNL     1      32.487  15.863  -4.530  1.00  0.00     0.125 A
ATOM      2  C   UNL     1      33.587  15.867  -3.673  1.00  0.00     0.049 A
ATOM      3  C   UNL     1      34.022  14.672  -3.086  1.00  0.00     0.030 A
ATOM      4  C   UNL     1      33.374  13.458  -3.353  1.00  0.00     0.042 A
ATOM      5  C   UNL     1      32.308  13.477  -4.259  1.00  0.00     0.036 A
ATOM      6  C   UNL     1      31.855  14.663  -4.863  1.00  0.00     0.022 A
ENDROOT
BRANCH   6   7
ATOM      7  C   UNL     1      30.677  14.593  -5.802  1.00  0.00     0.200 C
BRANCH   7   8
ATOM      8  O   UNL     1      29.679  13.658  -5.373  1.00  0.00    -0.372 OA
BRANCH   8   9
ATOM      9  C   UNL     1      28.656  14.282  -4.592  1.00  0.00     0.193 C
BRANCH   9  10
ATOM     10  C   UNL     1      27.395  14.546  -5.394  1.00  0.00    -0.033 C
ATOM     11  C   UNL     1      26.960  13.678  -6.334  1.00  0.00     0.004 C
ATOM     12  G   UNL     1      25.674  13.699  -7.096  1.00  0.00     0.000 C
BRANCH  10  13
ATOM     13  C   UNL     1      26.642  15.800  -4.991  1.00  0.00     0.114 C
BRANCH  13  14
ATOM     14  N   UNL     1      26.688  16.885  -5.966  1.00  0.00    -0.311 NA
ATOM     15  H   UNL     1      26.291  16.590  -6.854  1.00  0.00     0.123 HD
BRANCH  14  16
ATOM     16  C   UNL     1      28.027  17.454  -6.180  1.00  0.00     0.100 C
ATOM     17  G   UNL     1      28.034  19.014  -6.197  1.00  0.00     0.000 C
ENDBRANCH  14  16
ENDBRANCH  13  14
ENDBRANCH  10  13
ENDBRANCH   9  10
ENDBRANCH   8   9
ENDBRANCH   7   8
ENDBRANCH   6   7
BRANCH   1  18
ATOM     18  O   UNL     1      32.023  17.046  -5.051  1.00  0.00    -0.492 OA
BRANCH  18  19
ATOM     19  C   UNL     1      32.995  17.627  -5.946  1.00  0.00     0.245 C
BRANCH  19  20
ATOM     20  C   UNL     1      32.483  18.999  -6.421  1.00  0.00     0.126 C
BRANCH  20  21
ATOM     21  N   UNL     1      33.033  20.082  -5.601  1.00  0.00    -0.296 NA
ATOM     22  C   UNL     1      34.089  20.832  -6.273  1.00  0.00     0.085 C
ATOM     23  C   UNL     1      32.035  21.081  -5.168  1.00  0.00     0.070 C
ATOM     24  C   UNL     1      34.283  22.017  -5.346  1.00  0.00     0.017 C
ATOM     25  C   UNL     1      32.910  22.265  -4.731  1.00  0.00     0.022 C
ATOM     26  G   UNL     1      31.068  20.613  -4.037  1.00  0.00     0.000 C
ENDBRANCH  20  21
ENDBRANCH  19  20
ENDBRANCH  18  19
ENDBRANCH   1  18
BRANCH   4  27
ATOM     27  N   UNL     1      33.744  12.308  -2.649  1.00  0.00    -0.324 N
ATOM     28  H   UNL     1      34.414  12.401  -1.902  1.00  0.00     0.170 HD
BRANCH  27  29
ATOM     29  C   UNL     1      33.340  10.981  -2.789  1.00  0.00     0.227 A
ATOM     30  N   UNL     1      34.066  10.065  -2.129  1.00  0.00    -0.221 NA
ATOM     31  N   UNL     1      32.258  10.669  -3.514  1.00  0.00    -0.212 NA
ATOM     32  C   UNL     1      33.685   8.777  -2.250  1.00  0.00     0.117 A
ATOM     33  C   UNL     1      31.900   9.375  -3.600  1.00  0.00     0.086 A
ATOM     34  C   UNL     1      32.603   8.367  -2.987  1.00  0.00     0.050 A
BRANCH  33  35
ATOM     35  C   UNL     1      30.718   9.113  -4.423  1.00  0.00     0.053 A
ATOM     36  C   UNL     1      30.308   7.933  -5.015  1.00  0.00     0.022 A
ATOM     37  S   UNL     1      29.612  10.383  -4.753  1.00  0.00    -0.136 S
ATOM     38  C   UNL     1      29.114   8.093  -5.782  1.00  0.00     0.018 A
ATOM     39  C   UNL     1      28.631   9.386  -5.742  1.00  0.00     0.031 A
BRANCH  39  40
ATOM     40  C   UNL     1      27.418   9.950  -6.416  1.00  0.00     0.207 C
BRANCH  40  41
ATOM     41  O   UNL     1      26.806   8.903  -7.177  1.00  0.00    -0.372 OA
BRANCH  41  42
ATOM     42  C   UNL     1      26.816   9.136  -8.587  1.00  0.00     0.188 C
ATOM     43  G   UNL     1      26.741  10.602  -8.868  1.00  0.00     0.000 C
ENDBRANCH  41  42
ENDBRANCH  40  41
ENDBRANCH  39  40
ENDBRANCH  33  35
ENDBRANCH  27  29
ENDBRANCH   4  27
TORSDOF 0
ENDMDL
MODEL 7
REMARK VINA RESULT:      -7.0      1.727      5.264
REMARK SMILES C1=C2\CNC[C@H]3CCCN3CCOc3ccc(cc3COC2)Nc2nccc(n2)-c2ccc(s2)COC/1
REMARK SMILES IDX 14 1 15 2 16 3 17 4 18 5 19 6 20 7 21 8 22 9 2 10 1 11 3 13
REMARK SMILES IDX 4 14 5 16 13 18 12 19 11 20 10 21 9 22 6 23 8 24 7 25 23 27
REMARK SMILES IDX 24 29 25 30 29 31 26 32 28 33 27 34 30 35 31 36 34 37 32 38
REMARK SMILES IDX 33 39 35 40 36 41 37 42
REMARK H PARENT 4 15 23 28
REMARK Flexibility Score:   91.800
ROOT
ATOM      1  C   UNL     1      31.126  16.555  -3.862  1.00  0.00     0.125 A
ATOM      2  C   UNL     1      30.962  15.826  -2.684  1.00  0.00     0.049 A
ATOM      3  C   UNL     1      31.986  14.982  -2.234  1.00  0.00     0.030 A
ATOM      4  C   UNL     1      33.188  14.863  -2.944  1.00  0.00     0.042 A
ATOM      5  C   UNL     1      33.345  15.647  -4.093  1.00  0.00     0.036 A
ATOM      6  C   UNL     1      32.333  16.503  -4.562  1.00  0.00     0.022 A
ENDROOT
BRANCH   6   7
ATOM      7  C   UNL     1      32.578  17.286  -5.827  1.00  0.00     0.200 C
BRANCH   7   8
ATOM      8  O   UNL     1      33.920  17.779  -5.927  1.00  0.00    -0.372 OA
BRANCH   8   9
ATOM      9  C   UNL     1      33.985  19.031  -6.614  1.00  0.00     0.193 C
BRANCH   9  10
ATOM     10  C   UNL     1      33.034  20.061  -6.031  1.00  0.00    -0.033 C
ATOM     11  C   UNL     1      33.468  21.030  -5.194  1.00  0.00     0.004 C
ATOM     12  G   UNL     1      32.713  22.204  -4.660  1.00  0.00     0.000 C
BRANCH  10  13
ATOM     13  C   UNL     1      31.607  19.957  -6.534  1.00  0.00     0.114 C
BRANCH  13  14
ATOM     14  N   UNL     1      30.581  20.194  -5.524  1.00  0.00    -0.311 NA
ATOM     15  H   UNL     1      30.274  19.318  -5.109  1.00  0.00     0.123 HD
BRANCH  14  16
ATOM     16  C   UNL     1      29.419  20.956  -6.002  1.00  0.00     0.100 C
ATOM     17  G   UNL     1      28.366  20.072  -6.738  1.00  0.00     0.000 C
ENDBRANCH  14  16
ENDBRANCH  13  14
ENDBRANCH  10  13
ENDBRANCH   9  10
ENDBRANCH   8   9
ENDBRANCH   7   8
ENDBRANCH   6   7
BRANCH   1  18
ATOM     18  O   UNL     1      30.095  17.328  -4.335  1.00  0.00    -0.492 OA
BRANCH  18  19
ATOM     19  C   UNL     1      28.981  16.505  -4.739  1.00  0.00     0.245 C
BRANCH  19  20
ATOM     20  C   UNL     1      29.030  16.308  -6.265  1.00  0.00     0.126 C
BRANCH  20  21
ATOM     21  N   UNL     1      27.809  15.662  -6.755  1.00  0.00    -0.296 NA
ATOM     22  C   UNL     1      27.244  16.316  -7.931  1.00  0.00     0.085 C
ATOM     23  C   UNL     1      27.979  14.241  -7.121  1.00  0.00     0.070 C
ATOM     24  C   UNL     1      26.186  15.324  -8.375  1.00  0.00     0.017 C
ATOM     25  C   UNL     1      26.732  13.959  -7.970  1.00  0.00     0.022 C
ATOM     26  G   UNL     1      28.111  13.254  -5.920  1.00  0.00     0.000 C
ENDBRANCH  20  21
ENDBRANCH  19  20
ENDBRANCH  18  19
ENDBRANCH   1  18
BRANCH   4  27
ATOM     27  N   UNL     1      34.134  13.913  -2.546  1.00  0.00    -0.324 N
ATOM     28  H   UNL     1      35.028  14.241  -2.215  1.00  0.00     0.170 HD
BRANCH  27  29
ATOM     29  C   UNL     1      34.076  12.520  -2.516  1.00  0.00     0.227 A
ATOM     30  N   UNL     1      35.062  11.898  -1.852  1.00  0.00    -0.221 NA
ATOM     31  N   UNL     1      33.058  11.867  -3.090  1.00  0.00    -0.212 NA
ATOM     32  C   UNL     1      35.018  10.551  -1.809  1.00  0.00     0.117 A
ATOM     33  C   UNL     1      33.040  10.524  -3.015  1.00  0.00     0.086 A
ATOM     34  C   UNL     1      34.024   9.802  -2.386  1.00  0.00     0.050 A
BRANCH  33  35
ATOM     35  C   UNL     1      31.905   9.882  -3.681  1.00  0.00     0.053 A
ATOM     36  C   UNL     1      31.592   8.539  -3.777  1.00  0.00     0.022 A
ATOM     37  S   UNL     1      30.729  10.845  -4.477  1.00  0.00    -0.136 S
ATOM     38  C   UNL     1      30.416   8.307  -4.552  1.00  0.00     0.018 A
ATOM     39  C   UNL     1      29.848   9.478  -5.013  1.00  0.00     0.031 A
BRANCH  39  40
ATOM     40  C   UNL     1      28.623   9.651  -5.858  1.00  0.00     0.207 C
BRANCH  40  41
ATOM     41  O   UNL     1      27.724   8.577  -5.563  1.00  0.00    -0.372 OA
BRANCH  41  42
ATOM     42  C   UNL     1      27.345   7.813  -6.710  1.00  0.00     0.188 C
ATOM     43  G   UNL     1      26.062   8.333  -7.273  1.00  0.00     0.000 C
ENDBRANCH  41  42
ENDBRANCH  40  41
ENDBRANCH  39  40
ENDBRANCH  33  35
ENDBRANCH  27  29
ENDBRANCH   4  27
TORSDOF 0
ENDMDL
MODEL 8
REMARK VINA RESULT:      -7.0      1.393      2.008
REMARK SMILES C1=C2\CNC[C@H]3CCCN3CCOc3ccc(cc3COC2)Nc2nccc(n2)-c2ccc(s2)COC/1
REMARK SMILES IDX 14 1 15 2 16 3 17 4 18 5 19 6 20 7 21 8 22 9 2 10 1 11 3 13
REMARK SMILES IDX 4 14 5 16 13 18 12 19 11 20 10 21 9 22 6 23 8 24 7 25 23 27
REMARK SMILES IDX 24 29 25 30 29 31 26 32 28 33 27 34 30 35 31 36 34 37 32 38
REMARK SMILES IDX 33 39 35 40 36 41 37 42
REMARK H PARENT 4 15 23 28
REMARK Flexibility Score:   91.800
ROOT
ATOM      1  C   UNL     1      31.958  16.099  -3.944  1.00  0.00     0.125 A
ATOM      2  C   UNL     1      33.350  16.098  -3.837  1.00  0.00     0.049 A
ATOM      3  C   UNL     1      34.020  14.942  -3.418  1.00  0.00     0.030 A
ATOM      4  C   UNL     1      33.315  13.770  -3.112  1.00  0.00     0.042 A
ATOM      5  C   UNL     1      31.926  13.783  -3.281  1.00  0.00     0.036 A
ATOM      6  C   UNL     1      31.232  14.931  -3.703  1.00  0.00     0.022 A
ENDROOT
BRANCH   6   7
ATOM      7  C   UNL     1      29.730  14.863  -3.825  1.00  0.00     0.200 C
BRANCH   7   8
ATOM      8  O   UNL     1      29.278  13.670  -4.478  1.00  0.00    -0.372 OA
BRANCH   8   9
ATOM      9  C   UNL     1      29.082  13.865  -5.882  1.00  0.00     0.193 C
BRANCH   9  10
ATOM     10  C   UNL     1      27.613  13.934  -6.257  1.00  0.00    -0.033 C
ATOM     11  C   UNL     1      26.640  13.838  -5.324  1.00  0.00     0.004 C
ATOM     12  G   UNL     1      25.168  14.042  -5.490  1.00  0.00     0.000 C
BRANCH  10  13
ATOM     13  C   UNL     1      27.349  14.203  -7.726  1.00  0.00     0.114 C
BRANCH  13  14
ATOM     14  N   UNL     1      27.529  13.051  -8.603  1.00  0.00    -0.311 NA
ATOM     15  H   UNL     1      27.568  13.340  -9.577  1.00  0.00     0.123 HD
BRANCH  14  16
ATOM     16  C   UNL     1      26.520  11.994  -8.435  1.00  0.00     0.100 C
ATOM     17  G   UNL     1      25.095  12.428  -8.898  1.00  0.00     0.000 C
ENDBRANCH  14  16
ENDBRANCH  13  14
ENDBRANCH  10  13
ENDBRANCH   9  10
ENDBRANCH   8   9
ENDBRANCH   7   8
ENDBRANCH   6   7
BRANCH   1  18
ATOM     18  O   UNL     1      31.301  17.252  -4.291  1.00  0.00    -0.492 OA
BRANCH  18  19
ATOM     19  C   UNL     1      31.389  17.485  -5.712  1.00  0.00     0.245 C
BRANCH  19  20
ATOM     20  C   UNL     1      30.017  17.951  -6.232  1.00  0.00     0.126 C
BRANCH  20  21
ATOM     21  N   UNL     1      29.802  19.374  -5.956  1.00  0.00    -0.296 NA
ATOM     22  C   UNL     1      31.021  20.169  -6.053  1.00  0.00     0.085 C
ATOM     23  C   UNL     1      28.819  20.022  -6.848  1.00  0.00     0.070 C
ATOM     24  C   UNL     1      30.486  21.587  -5.993  1.00  0.00     0.017 C
ATOM     25  C   UNL     1      29.106  21.516  -6.638  1.00  0.00     0.022 C
ATOM     26  G   UNL     1      27.326  19.664  -6.571  1.00  0.00     0.000 C
ENDBRANCH  20  21
ENDBRANCH  19  20
ENDBRANCH  18  19
ENDBRANCH   1  18
BRANCH   4  27
ATOM     27  N   UNL     1      33.996  12.677  -2.567  1.00  0.00    -0.324 N
ATOM     28  H   UNL     1      34.841  12.852  -2.046  1.00  0.00     0.170 HD
BRANCH  27  29
ATOM     29  C   UNL     1      33.715  11.312  -2.607  1.00  0.00     0.227 A
ATOM     30  N   UNL     1      34.553  10.511  -1.929  1.00  0.00    -0.221 NA
ATOM     31  N   UNL     1      32.638  10.855  -3.258  1.00  0.00    -0.212 NA
ATOM     32  C   UNL     1      34.292   9.189  -1.954  1.00  0.00     0.117 A
ATOM     33  C   UNL     1      32.402   9.531  -3.248  1.00  0.00     0.086 A
ATOM     34  C   UNL     1      33.223   8.634  -2.610  1.00  0.00     0.050 A
BRANCH  33  35
ATOM     35  C   UNL     1      31.216   9.108  -3.996  1.00  0.00     0.053 A
ATOM     36  C   UNL     1      30.882   7.854  -4.472  1.00  0.00     0.022 A
ATOM     37  S   UNL     1      29.998  10.254  -4.380  1.00  0.00    -0.136 S
ATOM     38  C   UNL     1      29.652   7.854  -5.196  1.00  0.00     0.018 A
ATOM     39  C   UNL     1      29.067   9.103  -5.241  1.00  0.00     0.031 A
BRANCH  39  40
ATOM     40  C   UNL     1      27.788   9.511  -5.906  1.00  0.00     0.207 C
BRANCH  40  41
ATOM     41  O   UNL     1      27.581   8.653  -7.033  1.00  0.00    -0.372 OA
BRANCH  41  42
ATOM     42  C   UNL     1      26.342   7.941  -6.993  1.00  0.00     0.188 C
ATOM     43  G   UNL     1      25.441   8.411  -8.089  1.00  0.00     0.000 C
ENDBRANCH  41  42
ENDBRANCH  40  41
ENDBRANCH  39  40
ENDBRANCH  33  35
ENDBRANCH  27  29
ENDBRANCH   4  27
TORSDOF 0
ENDMDL
MODEL 9
REMARK VINA RESULT:      -6.9      1.628      1.955
REMARK SMILES C1=C2\CNC[C@H]3CCCN3CCOc3ccc(cc3COC2)Nc2nccc(n2)-c2ccc(s2)COC/1
REMARK SMILES IDX 14 1 15 2 16 3 17 4 18 5 19 6 20 7 21 8 22 9 2 10 1 11 3 13
REMARK SMILES IDX 4 14 5 16 13 18 12 19 11 20 10 21 9 22 6 23 8 24 7 25 23 27
REMARK SMILES IDX 24 29 25 30 29 31 26 32 28 33 27 34 30 35 31 36 34 37 32 38
REMARK SMILES IDX 33 39 35 40 36 41 37 42
REMARK H PARENT 4 15 23 28
REMARK Flexibility Score:   91.800
ROOT
ATOM      1  C   UNL     1      31.125  15.828  -3.952  1.00  0.00     0.125 A
ATOM      2  C   UNL     1      32.180  15.903  -3.042  1.00  0.00     0.049 A
ATOM      3  C   UNL     1      33.057  14.820  -2.895  1.00  0.00     0.030 A
ATOM      4  C   UNL     1      32.900  13.656  -3.659  1.00  0.00     0.042 A
ATOM      5  C   UNL     1      31.867  13.630  -4.602  1.00  0.00     0.036 A
ATOM      6  C   UNL     1      30.976  14.705  -4.770  1.00  0.00     0.022 A
ENDROOT
BRANCH   6   7
ATOM      7  C   UNL     1      29.871  14.577  -5.787  1.00  0.00     0.200 C
BRANCH   7   8
ATOM      8  O   UNL     1      28.637  14.123  -5.215  1.00  0.00    -0.372 OA
BRANCH   8   9
ATOM      9  C   UNL     1      27.970  13.176  -6.054  1.00  0.00     0.193 C
BRANCH   9  10
ATOM     10  C   UNL     1      26.735  13.759  -6.716  1.00  0.00    -0.033 C
ATOM     11  C   UNL     1      26.004  13.045  -7.602  1.00  0.00     0.004 C
ATOM     12  G   UNL     1      24.690  13.397  -8.220  1.00  0.00     0.000 C
BRANCH  10  13
ATOM     13  C   UNL     1      26.358  15.148  -6.237  1.00  0.00     0.114 C
BRANCH  13  14
ATOM     14  N   UNL     1      27.027  16.241  -6.934  1.00  0.00    -0.311 NA
ATOM     15  H   UNL     1      27.349  16.946  -6.276  1.00  0.00     0.123 HD
BRANCH  14  16
ATOM     16  C   UNL     1      26.223  16.872  -7.991  1.00  0.00     0.100 C
ATOM     17  G   UNL     1      26.795  16.631  -9.422  1.00  0.00     0.000 C
ENDBRANCH  14  16
ENDBRANCH  13  14
ENDBRANCH  10  13
ENDBRANCH   9  10
ENDBRANCH   8   9
ENDBRANCH   7   8
ENDBRANCH   6   7
BRANCH   1  18
ATOM     18  O   UNL     1      30.230  16.864  -4.045  1.00  0.00    -0.492 OA
BRANCH  18  19
ATOM     19  C   UNL     1      30.642  17.807  -5.056  1.00  0.00     0.245 C
BRANCH  19  20
ATOM     20  C   UNL     1      31.404  18.964  -4.383  1.00  0.00     0.126 C
BRANCH  20  21
ATOM     21  N   UNL     1      32.107  19.782  -5.375  1.00  0.00    -0.296 NA
ATOM     22  C   UNL     1      32.230  21.182  -4.982  1.00  0.00     0.085 C
ATOM     23  C   UNL     1      33.478  19.322  -5.679  1.00  0.00     0.070 C
ATOM     24  C   UNL     1      33.198  21.724  -6.016  1.00  0.00     0.017 C
ATOM     25  C   UNL     1      34.099  20.545  -6.368  1.00  0.00     0.022 C
ATOM     26  G   UNL     1      33.570  18.038  -6.560  1.00  0.00     0.000 C
ENDBRANCH  20  21
ENDBRANCH  19  20
ENDBRANCH  18  19
ENDBRANCH   1  18
BRANCH   4  27
ATOM     27  N   UNL     1      33.705  12.543  -3.395  1.00  0.00    -0.324 N
ATOM     28  H   UNL     1      34.703  12.674  -3.357  1.00  0.00     0.170 HD
BRANCH  27  29
ATOM     29  C   UNL     1      33.372  11.209  -3.158  1.00  0.00     0.227 A
ATOM     30  N   UNL     1      34.084  10.578  -2.210  1.00  0.00    -0.221 NA
ATOM     31  N   UNL     1      32.368  10.627  -3.823  1.00  0.00    -0.212 NA
ATOM     32  C   UNL     1      33.771   9.290  -1.966  1.00  0.00     0.117 A
ATOM     33  C   UNL     1      32.075   9.345  -3.543  1.00  0.00     0.086 A
ATOM     34  C   UNL     1      32.771   8.611  -2.614  1.00  0.00     0.050 A
BRANCH  33  35
ATOM     35  C   UNL     1      30.976   8.775  -4.324  1.00  0.00     0.053 A
ATOM     36  C   UNL     1      30.059   9.412  -5.139  1.00  0.00     0.022 A
ATOM     37  S   UNL     1      30.705   7.081  -4.302  1.00  0.00    -0.136 S
ATOM     38  C   UNL     1      29.106   8.509  -5.699  1.00  0.00     0.018 A
ATOM     39  C   UNL     1      29.328   7.202  -5.314  1.00  0.00     0.031 A
BRANCH  39  40
ATOM     40  C   UNL     1      28.548   5.976  -5.680  1.00  0.00     0.207 C
BRANCH  40  41
ATOM     41  O   UNL     1      29.474   4.899  -5.859  1.00  0.00    -0.372 OA
BRANCH  41  42
ATOM     42  C   UNL     1      29.550   4.425  -7.205  1.00  0.00     0.188 C
ATOM     43  G   UNL     1      28.381   4.920  -7.993  1.00  0.00     0.000 C
ENDBRANCH  41  42
ENDBRANCH  40  41
ENDBRANCH  39  40
ENDBRANCH  33  35
ENDBRANCH  27  29
ENDBRANCH   4  27
TORSDOF 0
ENDMDL
