MODEL 1
REMARK VINA RESULT:      -8.2      0.000      0.000
REMARK SMILES Cc1cnc2nc1-c1cccc(c1)COCC=C1CCC[C@@H]3CCCN3CCOc3ccc(cc3COC1)N2
REMARK SMILES IDX 30 1 31 2 32 3 33 4 34 5 35 6 39 7 5 9 2 10 3 11 7 12 4 13
REMARK SMILES IDX 6 14 1 15 8 16 9 17 13 18 10 19 12 20 11 21 14 22 15 23
REMARK SMILES IDX 16 24 36 26 37 27 38 28 18 29 17 30 19 32 20 33 21 34 29 36
REMARK SMILES IDX 28 37 27 38 26 39 25 40 22 41 24 42 23 43
REMARK H PARENT 39 8
REMARK Flexibility Score:  100.800
ROOT
ATOM      1  C   UNL     1      28.850   9.178  -5.627  1.00  0.00     0.125 A
ATOM      2  C   UNL     1      29.411   7.904  -5.523  1.00  0.00     0.049 A
ATOM      3  C   UNL     1      30.525   7.680  -4.704  1.00  0.00     0.030 A
ATOM      4  C   UNL     1      31.107   8.716  -3.967  1.00  0.00     0.042 A
ATOM      5  C   UNL     1      30.524   9.981  -4.057  1.00  0.00     0.036 A
ATOM      6  C   UNL     1      29.421  10.235  -4.899  1.00  0.00     0.022 A
ENDROOT
BRANCH   4   7
ATOM      7  N   UNL     1      32.212   8.438  -3.159  1.00  0.00    -0.324 N
ATOM      8  H   UNL     1      32.445   7.466  -3.020  1.00  0.00     0.170 HD
BRANCH   7   9
ATOM      9  C   UNL     1      33.202   9.238  -2.599  1.00  0.00     0.227 A
ATOM     10  C   UNL     1      35.193  10.683  -1.417  1.00  0.00    -0.006 A
ATOM     11  C   UNL     1      34.924   9.369  -1.098  1.00  0.00     0.120 A
ATOM     12  C   UNL     1      34.326  11.247  -2.344  1.00  0.00     0.079 A
ATOM     13  N   UNL     1      33.936   8.644  -1.649  1.00  0.00    -0.221 NA
ATOM     14  N   UNL     1      33.367  10.518  -2.963  1.00  0.00    -0.212 NA
ATOM     15  C   UNL     1      36.321  11.400  -0.753  1.00  0.00     0.048 C
BRANCH  12  16
ATOM     16  C   UNL     1      34.335  12.677  -2.714  1.00  0.00     0.001 A
ATOM     17  C   UNL     1      33.252  13.262  -3.393  1.00  0.00     0.010 A
ATOM     18  C   UNL     1      35.447  13.494  -2.437  1.00  0.00     0.016 A
ATOM     19  C   UNL     1      33.252  14.614  -3.738  1.00  0.00     0.001 A
ATOM     20  C   UNL     1      35.465  14.856  -2.788  1.00  0.00    -0.022 A
ATOM     21  C   UNL     1      34.351  15.409  -3.431  1.00  0.00     0.006 A
BRANCH  20  22
ATOM     22  C   UNL     1      36.683  15.705  -2.516  1.00  0.00     0.196 C
BRANCH  22  23
ATOM     23  O   UNL     1      36.765  16.131  -1.157  1.00  0.00    -0.373 OA
BRANCH  23  24
ATOM     24  C   UNL     1      37.713  17.173  -0.952  1.00  0.00     0.188 C
ATOM     25  G   UNL     1      37.961  17.369   0.515  1.00  0.00     0.000 C
ENDBRANCH  23  24
ENDBRANCH  22  23
ENDBRANCH  20  22
ENDBRANCH  12  16
ENDBRANCH   7   9
ENDBRANCH   4   7
BRANCH   6  26
ATOM     26  C   UNL     1      28.892  11.647  -4.986  1.00  0.00     0.200 C
BRANCH  26  27
ATOM     27  O   UNL     1      29.795  12.635  -4.500  1.00  0.00    -0.372 OA
BRANCH  27  28
ATOM     28  C   UNL     1      29.225  13.509  -3.527  1.00  0.00     0.191 C
BRANCH  28  29
ATOM     29  C   UNL     1      29.772  14.904  -3.762  1.00  0.00    -0.046 C
ATOM     30  C   UNL     1      30.488  15.595  -2.848  1.00  0.00     0.003 C
ATOM     31  G   UNL     1      30.831  15.184  -1.447  1.00  0.00     0.000 C
BRANCH  29  32
ATOM     32  C   UNL     1      29.496  15.505  -5.131  1.00  0.00     0.033 C
BRANCH  32  33
ATOM     33  C   UNL     1      30.758  15.653  -5.992  1.00  0.00     0.006 C
BRANCH  33  34
ATOM     34  C   UNL     1      31.115  17.107  -6.339  1.00  0.00     0.019 C
ATOM     35  G   UNL     1      32.063  17.745  -5.293  1.00  0.00     0.000 C
ENDBRANCH  33  34
ENDBRANCH  32  33
ENDBRANCH  29  32
ENDBRANCH  28  29
ENDBRANCH  27  28
ENDBRANCH  26  27
ENDBRANCH   6  26
BRANCH   1  36
ATOM     36  O   UNL     1      27.785   9.485  -6.432  1.00  0.00    -0.492 OA
BRANCH  36  37
ATOM     37  C   UNL     1      27.680   8.771  -7.670  1.00  0.00     0.245 C
BRANCH  37  38
ATOM     38  C   UNL     1      26.242   8.238  -7.861  1.00  0.00     0.126 C
BRANCH  38  39
ATOM     39  N   UNL     1      26.012   6.899  -7.265  1.00  0.00    -0.297 NA
ATOM     40  C   UNL     1      25.072   6.110  -8.074  1.00  0.00     0.085 C
ATOM     41  C   UNL     1      25.376   6.990  -5.929  1.00  0.00     0.056 C
ATOM     42  C   UNL     1      23.684   6.524  -7.626  1.00  0.00     0.017 C
ATOM     43  C   UNL     1      23.868   7.041  -6.207  1.00  0.00     0.020 C
ATOM     44  G   UNL     1      25.777   5.770  -5.064  1.00  0.00     0.000 C
ENDBRANCH  38  39
ENDBRANCH  37  38
ENDBRANCH  36  37
ENDBRANCH   1  36
TORSDOF 0
ENDMDL
MODEL 2
REMARK VINA RESULT:      -8.0      3.688      7.927
REMARK SMILES Cc1cnc2nc1-c1cccc(c1)COCC=C1CCC[C@@H]3CCCN3CCOc3ccc(cc3COC1)N2
REMARK SMILES IDX 30 1 31 2 32 3 33 4 34 5 35 6 39 7 5 9 2 10 3 11 7 12 4 13
REMARK SMILES IDX 6 14 1 15 8 16 9 17 13 18 10 19 12 20 11 21 14 22 15 23
REMARK SMILES IDX 16 24 36 26 37 27 38 28 18 29 17 30 19 32 20 33 21 34 29 36
REMARK SMILES IDX 28 37 27 38 26 39 25 40 22 41 24 42 23 43
REMARK H PARENT 39 8
REMARK Flexibility Score:  100.800
ROOT
ATOM      1  C   UNL     1      27.341  15.757  -5.429  1.00  0.00     0.125 A
ATOM      2  C   UNL     1      26.532  14.832  -4.768  1.00  0.00     0.049 A
ATOM      3  C   UNL     1      26.485  13.496  -5.189  1.00  0.00     0.030 A
ATOM      4  C   UNL     1      27.244  13.049  -6.276  1.00  0.00     0.042 A
ATOM      5  C   UNL     1      28.070  13.975  -6.914  1.00  0.00     0.036 A
ATOM      6  C   UNL     1      28.108  15.331  -6.526  1.00  0.00     0.022 A
ENDROOT
BRANCH   4   7
ATOM      7  N   UNL     1      27.167  11.706  -6.651  1.00  0.00    -0.324 N
ATOM      8  H   UNL     1      26.575  11.482  -7.437  1.00  0.00     0.170 HD
BRANCH   7   9
ATOM      9  C   UNL     1      27.872  10.572  -6.262  1.00  0.00     0.227 A
ATOM     10  C   UNL     1      29.146   8.259  -5.575  1.00  0.00    -0.006 A
ATOM     11  C   UNL     1      27.948   8.285  -6.256  1.00  0.00     0.120 A
ATOM     12  C   UNL     1      29.631   9.505  -5.199  1.00  0.00     0.079 A
ATOM     13  N   UNL     1      27.291   9.409  -6.586  1.00  0.00    -0.221 NA
ATOM     14  N   UNL     1      29.022  10.654  -5.579  1.00  0.00    -0.212 NA
ATOM     15  C   UNL     1      29.803   6.955  -5.262  1.00  0.00     0.048 C
BRANCH  12  16
ATOM     16  C   UNL     1      30.813   9.701  -4.334  1.00  0.00     0.001 A
ATOM     17  C   UNL     1      31.239   8.701  -3.443  1.00  0.00     0.010 A
ATOM     18  C   UNL     1      31.528  10.913  -4.343  1.00  0.00     0.016 A
ATOM     19  C   UNL     1      32.359   8.877  -2.630  1.00  0.00     0.001 A
ATOM     20  C   UNL     1      32.653  11.109  -3.521  1.00  0.00    -0.022 A
ATOM     21  C   UNL     1      33.067  10.073  -2.674  1.00  0.00     0.006 A
BRANCH  20  22
ATOM     22  C   UNL     1      33.383  12.430  -3.517  1.00  0.00     0.196 C
BRANCH  22  23
ATOM     23  O   UNL     1      33.897  12.771  -2.231  1.00  0.00    -0.373 OA
BRANCH  23  24
ATOM     24  C   UNL     1      35.316  12.881  -2.205  1.00  0.00     0.188 C
ATOM     25  G   UNL     1      35.889  11.975  -1.155  1.00  0.00     0.000 C
ENDBRANCH  23  24
ENDBRANCH  22  23
ENDBRANCH  20  22
ENDBRANCH  12  16
ENDBRANCH   7   9
ENDBRANCH   4   7
BRANCH   6  26
ATOM     26  C   UNL     1      28.981  16.280  -7.313  1.00  0.00     0.200 C
BRANCH  26  27
ATOM     27  O   UNL     1      30.362  16.212  -6.976  1.00  0.00    -0.372 OA
BRANCH  27  28
ATOM     28  C   UNL     1      30.742  17.089  -5.917  1.00  0.00     0.191 C
BRANCH  28  29
ATOM     29  C   UNL     1      32.047  16.588  -5.327  1.00  0.00    -0.046 C
ATOM     30  C   UNL     1      33.218  17.254  -5.417  1.00  0.00     0.003 C
ATOM     31  G   UNL     1      33.490  18.543  -6.136  1.00  0.00     0.000 C
BRANCH  29  32
ATOM     32  C   UNL     1      31.974  15.267  -4.577  1.00  0.00     0.033 C
BRANCH  32  33
ATOM     33  C   UNL     1      30.610  15.023  -3.914  1.00  0.00     0.006 C
BRANCH  33  34
ATOM     34  C   UNL     1      30.697  14.507  -2.469  1.00  0.00     0.019 C
ATOM     35  G   UNL     1      31.307  15.555  -1.506  1.00  0.00     0.000 C
ENDBRANCH  33  34
ENDBRANCH  32  33
ENDBRANCH  29  32
ENDBRANCH  28  29
ENDBRANCH  27  28
ENDBRANCH  26  27
ENDBRANCH   6  26
BRANCH   1  36
ATOM     36  O   UNL     1      27.414  17.085  -5.102  1.00  0.00    -0.492 OA
BRANCH  36  37
ATOM     37  C   UNL     1      26.758  18.008  -5.979  1.00  0.00     0.245 C
BRANCH  37  38
ATOM     38  C   UNL     1      27.635  19.263  -6.190  1.00  0.00     0.126 C
BRANCH  38  39
ATOM     39  N   UNL     1      27.349  19.991  -7.452  1.00  0.00    -0.297 NA
ATOM     40  C   UNL     1      27.848  21.372  -7.394  1.00  0.00     0.085 C
ATOM     41  C   UNL     1      25.894  20.126  -7.695  1.00  0.00     0.056 C
ATOM     42  C   UNL     1      26.765  22.181  -6.707  1.00  0.00     0.017 C
ATOM     43  C   UNL     1      25.480  21.404  -6.953  1.00  0.00     0.020 C
ATOM     44  G   UNL     1      25.614  20.207  -9.216  1.00  0.00     0.000 C
ENDBRANCH  38  39
ENDBRANCH  37  38
ENDBRANCH  36  37
ENDBRANCH   1  36
TORSDOF 0
ENDMDL
MODEL 3
REMARK VINA RESULT:      -8.0      4.276      8.273
REMARK SMILES Cc1cnc2nc1-c1cccc(c1)COCC=C1CCC[C@@H]3CCCN3CCOc3ccc(cc3COC1)N2
REMARK SMILES IDX 30 1 31 2 32 3 33 4 34 5 35 6 39 7 5 9 2 10 3 11 7 12 4 13
REMARK SMILES IDX 6 14 1 15 8 16 9 17 13 18 10 19 12 20 11 21 14 22 15 23
REMARK SMILES IDX 16 24 36 26 37 27 38 28 18 29 17 30 19 32 20 33 21 34 29 36
REMARK SMILES IDX 28 37 27 38 26 39 25 40 22 41 24 42 23 43
REMARK H PARENT 39 8
REMARK Flexibility Score:  100.800
ROOT
ATOM      1  C   UNL     1      27.907  18.272  -5.937  1.00  0.00     0.125 A
ATOM      2  C   UNL     1      26.841  17.380  -6.072  1.00  0.00     0.049 A
ATOM      3  C   UNL     1      26.888  16.116  -5.470  1.00  0.00     0.030 A
ATOM      4  C   UNL     1      27.995  15.708  -4.719  1.00  0.00     0.042 A
ATOM      5  C   UNL     1      29.045  16.616  -4.568  1.00  0.00     0.036 A
ATOM      6  C   UNL     1      29.031  17.882  -5.191  1.00  0.00     0.022 A
ENDROOT
BRANCH   4   7
ATOM      7  N   UNL     1      27.989  14.440  -4.134  1.00  0.00    -0.324 N
ATOM      8  H   UNL     1      27.643  14.373  -3.188  1.00  0.00     0.170 HD
BRANCH   7   9
ATOM      9  C   UNL     1      28.223  13.164  -4.635  1.00  0.00     0.227 A
ATOM     10  C   UNL     1      28.555  10.678  -5.710  1.00  0.00    -0.006 A
ATOM     11  C   UNL     1      27.486  11.493  -6.012  1.00  0.00     0.120 A
ATOM     12  C   UNL     1      29.427  11.189  -4.756  1.00  0.00     0.079 A
ATOM     13  N   UNL     1      27.289  12.710  -5.480  1.00  0.00    -0.221 NA
ATOM     14  N   UNL     1      29.287  12.441  -4.257  1.00  0.00    -0.212 NA
ATOM     15  C   UNL     1      28.689   9.342  -6.363  1.00  0.00     0.048 C
BRANCH  12  16
ATOM     16  C   UNL     1      30.549  10.425  -4.175  1.00  0.00     0.001 A
ATOM     17  C   UNL     1      30.442   9.045  -3.928  1.00  0.00     0.010 A
ATOM     18  C   UNL     1      31.750  11.060  -3.808  1.00  0.00     0.016 A
ATOM     19  C   UNL     1      31.502   8.316  -3.387  1.00  0.00     0.001 A
ATOM     20  C   UNL     1      32.823  10.340  -3.251  1.00  0.00    -0.022 A
ATOM     21  C   UNL     1      32.689   8.960  -3.056  1.00  0.00     0.006 A
BRANCH  20  22
ATOM     22  C   UNL     1      34.088  11.047  -2.829  1.00  0.00     0.196 C
BRANCH  22  23
ATOM     23  O   UNL     1      34.139  12.400  -3.277  1.00  0.00    -0.373 OA
BRANCH  23  24
ATOM     24  C   UNL     1      34.899  13.246  -2.421  1.00  0.00     0.188 C
ATOM     25  G   UNL     1      35.684  12.424  -1.442  1.00  0.00     0.000 C
ENDBRANCH  23  24
ENDBRANCH  22  23
ENDBRANCH  20  22
ENDBRANCH  12  16
ENDBRANCH   7   9
ENDBRANCH   4   7
BRANCH   6  26
ATOM     26  C   UNL     1      30.237  18.777  -5.029  1.00  0.00     0.200 C
BRANCH  26  27
ATOM     27  O   UNL     1      31.114  18.776  -6.149  1.00  0.00    -0.372 OA
BRANCH  27  28
ATOM     28  C   UNL     1      31.459  17.471  -6.611  1.00  0.00     0.191 C
BRANCH  28  29
ATOM     29  C   UNL     1      32.679  17.000  -5.841  1.00  0.00    -0.046 C
ATOM     30  C   UNL     1      33.853  17.667  -5.810  1.00  0.00     0.003 C
ATOM     31  G   UNL     1      34.215  18.925  -6.542  1.00  0.00     0.000 C
BRANCH  29  32
ATOM     32  C   UNL     1      32.509  15.712  -5.051  1.00  0.00     0.033 C
BRANCH  32  33
ATOM     33  C   UNL     1      32.518  15.929  -3.531  1.00  0.00     0.006 C
BRANCH  33  34
ATOM     34  C   UNL     1      31.777  14.842  -2.736  1.00  0.00     0.019 C
ATOM     35  G   UNL     1      31.008  15.421  -1.523  1.00  0.00     0.000 C
ENDBRANCH  33  34
ENDBRANCH  32  33
ENDBRANCH  29  32
ENDBRANCH  28  29
ENDBRANCH  27  28
ENDBRANCH  26  27
ENDBRANCH   6  26
BRANCH   1  36
ATOM     36  O   UNL     1      27.951  19.509  -6.524  1.00  0.00    -0.492 OA
BRANCH  36  37
ATOM     37  C   UNL     1      26.700  20.174  -6.732  1.00  0.00     0.245 C
BRANCH  37  38
ATOM     38  C   UNL     1      26.648  20.785  -8.151  1.00  0.00     0.126 C
BRANCH  38  39
ATOM     39  N   UNL     1      26.920  19.810  -9.236  1.00  0.00    -0.297 NA
ATOM     40  C   UNL     1      26.971  20.472 -10.547  1.00  0.00     0.085 C
ATOM     41  C   UNL     1      25.837  18.807  -9.361  1.00  0.00     0.056 C
ATOM     42  C   UNL     1      25.534  20.569 -11.023  1.00  0.00     0.017 C
ATOM     43  C   UNL     1      24.805  19.447 -10.300  1.00  0.00     0.020 C
ATOM     44  G   UNL     1      26.404  17.479  -9.923  1.00  0.00     0.000 C
ENDBRANCH  38  39
ENDBRANCH  37  38
ENDBRANCH  36  37
ENDBRANCH   1  36
TORSDOF 0
ENDMDL
MODEL 4
REMARK VINA RESULT:      -8.0      4.150      7.755
REMARK SMILES Cc1cnc2nc1-c1cccc(c1)COCC=C1CCC[C@@H]3CCCN3CCOc3ccc(cc3COC1)N2
REMARK SMILES IDX 30 1 31 2 32 3 33 4 34 5 35 6 39 7 5 9 2 10 3 11 7 12 4 13
REMARK SMILES IDX 6 14 1 15 8 16 9 17 13 18 10 19 12 20 11 21 14 22 15 23
REMARK SMILES IDX 16 24 36 26 37 27 38 28 18 29 17 30 19 32 20 33 21 34 29 36
REMARK SMILES IDX 28 37 27 38 26 39 25 40 22 41 24 42 23 43
REMARK H PARENT 39 8
REMARK Flexibility Score:  100.800
ROOT
ATOM      1  C   UNL     1      27.427  15.215  -7.869  1.00  0.00     0.125 A
ATOM      2  C   UNL     1      26.663  14.109  -8.245  1.00  0.00     0.049 A
ATOM      3  C   UNL     1      26.623  12.963  -7.441  1.00  0.00     0.030 A
ATOM      4  C   UNL     1      27.340  12.890  -6.242  1.00  0.00     0.042 A
ATOM      5  C   UNL     1      28.079  14.011  -5.860  1.00  0.00     0.036 A
ATOM      6  C   UNL     1      28.158  15.163  -6.671  1.00  0.00     0.022 A
ENDROOT
BRANCH   4   7
ATOM      7  N   UNL     1      27.260  11.728  -5.472  1.00  0.00    -0.324 N
ATOM      8  H   UNL     1      26.390  11.556  -4.990  1.00  0.00     0.170 HD
BRANCH   7   9
ATOM      9  C   UNL     1      28.095  10.624  -5.332  1.00  0.00     0.227 A
ATOM     10  C   UNL     1      29.624   8.373  -5.133  1.00  0.00    -0.006 A
ATOM     11  C   UNL     1      28.352   8.375  -5.664  1.00  0.00     0.120 A
ATOM     12  C   UNL     1      30.053   9.599  -4.639  1.00  0.00     0.079 A
ATOM     13  N   UNL     1      27.572   9.465  -5.752  1.00  0.00    -0.221 NA
ATOM     14  N   UNL     1      29.312  10.724  -4.779  1.00  0.00    -0.212 NA
ATOM     15  C   UNL     1      30.416   7.108  -5.088  1.00  0.00     0.048 C
BRANCH  12  16
ATOM     16  C   UNL     1      31.314   9.790  -3.895  1.00  0.00     0.001 A
ATOM     17  C   UNL     1      31.861   8.759  -3.110  1.00  0.00     0.010 A
ATOM     18  C   UNL     1      31.989  11.024  -3.911  1.00  0.00     0.016 A
ATOM     19  C   UNL     1      33.057   8.931  -2.411  1.00  0.00     0.001 A
ATOM     20  C   UNL     1      33.190  11.215  -3.203  1.00  0.00    -0.022 A
ATOM     21  C   UNL     1      33.722  10.151  -2.463  1.00  0.00     0.006 A
BRANCH  20  22
ATOM     22  C   UNL     1      33.879  12.558  -3.203  1.00  0.00     0.196 C
BRANCH  22  23
ATOM     23  O   UNL     1      33.034  13.610  -3.666  1.00  0.00    -0.373 OA
BRANCH  23  24
ATOM     24  C   UNL     1      33.093  14.776  -2.851  1.00  0.00     0.188 C
ATOM     25  G   UNL     1      31.792  14.973  -2.130  1.00  0.00     0.000 C
ENDBRANCH  23  24
ENDBRANCH  22  23
ENDBRANCH  20  22
ENDBRANCH  12  16
ENDBRANCH   7   9
ENDBRANCH   4   7
BRANCH   6  26
ATOM     26  C   UNL     1      29.033  16.306  -6.214  1.00  0.00     0.200 C
BRANCH  26  27
ATOM     27  O   UNL     1      30.331  16.312  -6.799  1.00  0.00    -0.372 OA
BRANCH  27  28
ATOM     28  C   UNL     1      31.382  16.037  -5.875  1.00  0.00     0.191 C
BRANCH  28  29
ATOM     29  C   UNL     1      32.021  17.353  -5.474  1.00  0.00    -0.046 C
ATOM     30  C   UNL     1      33.059  17.916  -6.130  1.00  0.00     0.003 C
ATOM     31  G   UNL     1      33.815  17.363  -7.302  1.00  0.00     0.000 C
BRANCH  29  32
ATOM     32  C   UNL     1      31.402  18.055  -4.276  1.00  0.00     0.033 C
BRANCH  32  33
ATOM     33  C   UNL     1      31.192  19.560  -4.498  1.00  0.00     0.006 C
BRANCH  33  34
ATOM     34  C   UNL     1      30.141  19.897  -5.567  1.00  0.00     0.019 C
ATOM     35  G   UNL     1      30.256  21.359  -6.064  1.00  0.00     0.000 C
ENDBRANCH  33  34
ENDBRANCH  32  33
ENDBRANCH  29  32
ENDBRANCH  28  29
ENDBRANCH  27  28
ENDBRANCH  26  27
ENDBRANCH   6  26
BRANCH   1  36
ATOM     36  O   UNL     1      27.546  16.356  -8.618  1.00  0.00    -0.492 OA
BRANCH  36  37
ATOM     37  C   UNL     1      26.450  17.277  -8.577  1.00  0.00     0.245 C
BRANCH  37  38
ATOM     38  C   UNL     1      26.532  18.262  -9.765  1.00  0.00     0.126 C
BRANCH  38  39
ATOM     39  N   UNL     1      26.777  19.670  -9.365  1.00  0.00    -0.297 NA
ATOM     40  C   UNL     1      25.724  20.158  -8.463  1.00  0.00     0.085 C
ATOM     41  C   UNL     1      26.737  20.590 -10.526  1.00  0.00     0.056 C
ATOM     42  C   UNL     1      24.594  20.631  -9.357  1.00  0.00     0.017 C
ATOM     43  C   UNL     1      25.259  20.972 -10.683  1.00  0.00     0.020 C
ATOM     44  G   UNL     1      27.641  21.819 -10.262  1.00  0.00     0.000 C
ENDBRANCH  38  39
ENDBRANCH  37  38
ENDBRANCH  36  37
ENDBRANCH   1  36
TORSDOF 0
ENDMDL
MODEL 5
REMARK VINA RESULT:      -7.9      3.483      8.162
REMARK SMILES Cc1cnc2nc1-c1cccc(c1)COCC=C1CCC[C@@H]3CCCN3CCOc3ccc(cc3COC1)N2
REMARK SMILES IDX 30 1 31 2 32 3 33 4 34 5 35 6 39 7 5 9 2 10 3 11 7 12 4 13
REMARK SMILES IDX 6 14 1 15 8 16 9 17 13 18 10 19 12 20 11 21 14 22 15 23
REMARK SMILES IDX 16 24 36 26 37 27 38 28 18 29 17 30 19 32 20 33 21 34 29 36
REMARK SMILES IDX 28 37 27 38 26 39 25 40 22 41 24 42 23 43
REMARK H PARENT 39 8
REMARK Flexibility Score:  100.800
ROOT
ATOM      1  C   UNL     1      29.166  16.097  -5.377  1.00  0.00     0.125 A
ATOM      2  C   UNL     1      30.226  15.201  -5.526  1.00  0.00     0.049 A
ATOM      3  C   UNL     1      29.984  13.830  -5.680  1.00  0.00     0.030 A
ATOM      4  C   UNL     1      28.683  13.317  -5.691  1.00  0.00     0.042 A
ATOM      5  C   UNL     1      27.628  14.223  -5.568  1.00  0.00     0.036 A
ATOM      6  C   UNL     1      27.851  15.604  -5.381  1.00  0.00     0.022 A
ENDROOT
BRANCH   4   7
ATOM      7  N   UNL     1      28.495  11.943  -5.855  1.00  0.00    -0.324 N
ATOM      8  H   UNL     1      27.794  11.651  -6.519  1.00  0.00     0.170 HD
BRANCH   7   9
ATOM      9  C   UNL     1      29.194  10.830  -5.398  1.00  0.00     0.227 A
ATOM     10  C   UNL     1      30.451   8.556  -4.566  1.00  0.00    -0.006 A
ATOM     11  C   UNL     1      29.225   8.551  -5.195  1.00  0.00     0.120 A
ATOM     12  C   UNL     1      30.977   9.818  -4.321  1.00  0.00     0.079 A
ATOM     13  N   UNL     1      28.576   9.658  -5.594  1.00  0.00    -0.221 NA
ATOM     14  N   UNL     1      30.375  10.944  -4.774  1.00  0.00    -0.212 NA
ATOM     15  C   UNL     1      31.095   7.268  -4.168  1.00  0.00     0.048 C
BRANCH  12  16
ATOM     16  C   UNL     1      32.199  10.060  -3.527  1.00  0.00     0.001 A
ATOM     17  C   UNL     1      32.818   9.024  -2.807  1.00  0.00     0.010 A
ATOM     18  C   UNL     1      32.762  11.346  -3.432  1.00  0.00     0.016 A
ATOM     19  C   UNL     1      33.978   9.245  -2.062  1.00  0.00     0.001 A
ATOM     20  C   UNL     1      33.925  11.586  -2.676  1.00  0.00    -0.022 A
ATOM     21  C   UNL     1      34.532  10.519  -2.003  1.00  0.00     0.006 A
BRANCH  20  22
ATOM     22  C   UNL     1      34.491  12.980  -2.556  1.00  0.00     0.196 C
BRANCH  22  23
ATOM     23  O   UNL     1      33.881  13.902  -3.456  1.00  0.00    -0.373 OA
BRANCH  23  24
ATOM     24  C   UNL     1      33.358  15.056  -2.808  1.00  0.00     0.188 C
ATOM     25  G   UNL     1      32.000  14.763  -2.240  1.00  0.00     0.000 C
ENDBRANCH  23  24
ENDBRANCH  22  23
ENDBRANCH  20  22
ENDBRANCH  12  16
ENDBRANCH   7   9
ENDBRANCH   4   7
BRANCH   6  26
ATOM     26  C   UNL     1      26.655  16.506  -5.192  1.00  0.00     0.200 C
BRANCH  26  27
ATOM     27  O   UNL     1      26.258  17.199  -6.370  1.00  0.00    -0.372 OA
BRANCH  27  28
ATOM     28  C   UNL     1      25.900  16.339  -7.451  1.00  0.00     0.191 C
BRANCH  28  29
ATOM     29  C   UNL     1      26.748  16.707  -8.654  1.00  0.00    -0.046 C
ATOM     30  C   UNL     1      26.558  17.819  -9.397  1.00  0.00     0.003 C
ATOM     31  G   UNL     1      25.482  18.854  -9.244  1.00  0.00     0.000 C
BRANCH  29  32
ATOM     32  C   UNL     1      27.883  15.751  -8.984  1.00  0.00     0.033 C
BRANCH  32  33
ATOM     33  C   UNL     1      27.402  14.330  -9.308  1.00  0.00     0.006 C
BRANCH  33  34
ATOM     34  C   UNL     1      26.462  14.245 -10.521  1.00  0.00     0.019 C
ATOM     35  G   UNL     1      25.573  12.977 -10.489  1.00  0.00     0.000 C
ENDBRANCH  33  34
ENDBRANCH  32  33
ENDBRANCH  29  32
ENDBRANCH  28  29
ENDBRANCH  27  28
ENDBRANCH  26  27
ENDBRANCH   6  26
BRANCH   1  36
ATOM     36  O   UNL     1      29.321  17.445  -5.187  1.00  0.00    -0.492 OA
BRANCH  36  37
ATOM     37  C   UNL     1      29.368  18.266  -6.360  1.00  0.00     0.245 C
BRANCH  37  38
ATOM     38  C   UNL     1      30.476  19.334  -6.222  1.00  0.00     0.126 C
BRANCH  38  39
ATOM     39  N   UNL     1      31.676  18.866  -5.485  1.00  0.00    -0.297 NA
ATOM     40  C   UNL     1      32.388  19.988  -4.856  1.00  0.00     0.085 C
ATOM     41  C   UNL     1      32.673  18.245  -6.389  1.00  0.00     0.056 C
ATOM     42  C   UNL     1      33.295  20.560  -5.928  1.00  0.00     0.017 C
ATOM     43  C   UNL     1      33.534  19.411  -6.895  1.00  0.00     0.020 C
ATOM     44  G   UNL     1      33.502  17.187  -5.620  1.00  0.00     0.000 C
ENDBRANCH  38  39
ENDBRANCH  37  38
ENDBRANCH  36  37
ENDBRANCH   1  36
TORSDOF 0
ENDMDL
MODEL 6
REMARK VINA RESULT:      -7.8      3.613      7.026
REMARK SMILES Cc1cnc2nc1-c1cccc(c1)COCC=C1CCC[C@@H]3CCCN3CCOc3ccc(cc3COC1)N2
REMARK SMILES IDX 30 1 31 2 32 3 33 4 34 5 35 6 39 7 5 9 2 10 3 11 7 12 4 13
REMARK SMILES IDX 6 14 1 15 8 16 9 17 13 18 10 19 12 20 11 21 14 22 15 23
REMARK SMILES IDX 16 24 36 26 37 27 38 28 18 29 17 30 19 32 20 33 21 34 29 36
REMARK SMILES IDX 28 37 27 38 26 39 25 40 22 41 24 42 23 43
REMARK H PARENT 39 8
REMARK Flexibility Score:  100.800
ROOT
ATOM      1  C   UNL     1      27.494  15.823  -5.440  1.00  0.00     0.125 A
ATOM      2  C   UNL     1      26.240  15.213  -5.509  1.00  0.00     0.049 A
ATOM      3  C   UNL     1      26.121  13.819  -5.449  1.00  0.00     0.030 A
ATOM      4  C   UNL     1      27.245  12.997  -5.317  1.00  0.00     0.042 A
ATOM      5  C   UNL     1      28.492  13.617  -5.222  1.00  0.00     0.036 A
ATOM      6  C   UNL     1      28.637  15.018  -5.312  1.00  0.00     0.022 A
ENDROOT
BRANCH   4   7
ATOM      7  N   UNL     1      27.071  11.613  -5.254  1.00  0.00    -0.324 N
ATOM      8  H   UNL     1      26.134  11.263  -5.382  1.00  0.00     0.170 HD
BRANCH   7   9
ATOM      9  C   UNL     1      27.963  10.547  -5.200  1.00  0.00     0.227 A
ATOM     10  C   UNL     1      29.606   8.369  -5.175  1.00  0.00    -0.006 A
ATOM     11  C   UNL     1      28.328   8.342  -5.690  1.00  0.00     0.120 A
ATOM     12  C   UNL     1      29.980   9.578  -4.603  1.00  0.00     0.079 A
ATOM     13  N   UNL     1      27.492   9.394  -5.693  1.00  0.00    -0.221 NA
ATOM     14  N   UNL     1      29.181  10.671  -4.655  1.00  0.00    -0.212 NA
ATOM     15  C   UNL     1      30.462   7.146  -5.226  1.00  0.00     0.048 C
BRANCH  12  16
ATOM     16  C   UNL     1      31.241   9.782  -3.861  1.00  0.00     0.001 A
ATOM     17  C   UNL     1      31.766   8.781  -3.026  1.00  0.00     0.010 A
ATOM     18  C   UNL     1      31.938  11.003  -3.932  1.00  0.00     0.016 A
ATOM     19  C   UNL     1      32.962   8.965  -2.329  1.00  0.00     0.001 A
ATOM     20  C   UNL     1      33.139  11.206  -3.227  1.00  0.00    -0.022 A
ATOM     21  C   UNL     1      33.648  10.169  -2.436  1.00  0.00     0.006 A
BRANCH  20  22
ATOM     22  C   UNL     1      33.851  12.535  -3.287  1.00  0.00     0.196 C
BRANCH  22  23
ATOM     23  O   UNL     1      33.473  13.411  -2.227  1.00  0.00    -0.373 OA
BRANCH  23  24
ATOM     24  C   UNL     1      32.642  14.484  -2.655  1.00  0.00     0.188 C
ATOM     25  G   UNL     1      31.612  14.794  -1.607  1.00  0.00     0.000 C
ENDBRANCH  23  24
ENDBRANCH  22  23
ENDBRANCH  20  22
ENDBRANCH  12  16
ENDBRANCH   7   9
ENDBRANCH   4   7
BRANCH   6  26
ATOM     26  C   UNL     1      30.030  15.601  -5.265  1.00  0.00     0.200 C
BRANCH  26  27
ATOM     27  O   UNL     1      30.203  16.610  -4.276  1.00  0.00    -0.372 OA
BRANCH  27  28
ATOM     28  C   UNL     1      31.448  17.299  -4.367  1.00  0.00     0.191 C
BRANCH  28  29
ATOM     29  C   UNL     1      31.390  18.232  -5.563  1.00  0.00    -0.046 C
ATOM     30  C   UNL     1      32.189  18.118  -6.646  1.00  0.00     0.003 C
ATOM     31  G   UNL     1      33.298  17.133  -6.871  1.00  0.00     0.000 C
BRANCH  29  32
ATOM     32  C   UNL     1      30.335  19.325  -5.502  1.00  0.00     0.033 C
BRANCH  32  33
ATOM     33  C   UNL     1      30.861  20.643  -4.917  1.00  0.00     0.006 C
BRANCH  33  34
ATOM     34  C   UNL     1      32.387  20.804  -5.001  1.00  0.00     0.019 C
ATOM     35  G   UNL     1      32.803  22.023  -5.860  1.00  0.00     0.000 C
ENDBRANCH  33  34
ENDBRANCH  32  33
ENDBRANCH  29  32
ENDBRANCH  28  29
ENDBRANCH  27  28
ENDBRANCH  26  27
ENDBRANCH   6  26
BRANCH   1  36
ATOM     36  O   UNL     1      27.696  17.175  -5.528  1.00  0.00    -0.492 OA
BRANCH  36  37
ATOM     37  C   UNL     1      26.740  17.927  -6.284  1.00  0.00     0.245 C
BRANCH  37  38
ATOM     38  C   UNL     1      27.184  18.025  -7.762  1.00  0.00     0.126 C
BRANCH  38  39
ATOM     39  N   UNL     1      26.086  17.804  -8.735  1.00  0.00    -0.297 NA
ATOM     40  C   UNL     1      25.618  16.411  -8.705  1.00  0.00     0.085 C
ATOM     41  C   UNL     1      26.533  18.021 -10.132  1.00  0.00     0.056 C
ATOM     42  C   UNL     1      26.551  15.635  -9.614  1.00  0.00     0.017 C
ATOM     43  C   UNL     1      27.102  16.669 -10.584  1.00  0.00     0.020 C
ATOM     44  G   UNL     1      25.342  18.483 -11.006  1.00  0.00     0.000 C
ENDBRANCH  38  39
ENDBRANCH  37  38
ENDBRANCH  36  37
ENDBRANCH   1  36
TORSDOF 0
ENDMDL
MODEL 7
REMARK VINA RESULT:      -7.8      3.787      8.653
REMARK SMILES Cc1cnc2nc1-c1cccc(c1)COCC=C1CCC[C@@H]3CCCN3CCOc3ccc(cc3COC1)N2
REMARK SMILES IDX 30 1 31 2 32 3 33 4 34 5 35 6 39 7 5 9 2 10 3 11 7 12 4 13
REMARK SMILES IDX 6 14 1 15 8 16 9 17 13 18 10 19 12 20 11 21 14 22 15 23
REMARK SMILES IDX 16 24 36 26 37 27 38 28 18 29 17 30 19 32 20 33 21 34 29 36
REMARK SMILES IDX 28 37 27 38 26 39 25 40 22 41 24 42 23 43
REMARK H PARENT 39 8
REMARK Flexibility Score:  100.800
ROOT
ATOM      1  C   UNL     1      29.259  16.205  -6.144  1.00  0.00     0.125 A
ATOM      2  C   UNL     1      30.146  15.126  -6.167  1.00  0.00     0.049 A
ATOM      3  C   UNL     1      29.714  13.841  -5.815  1.00  0.00     0.030 A
ATOM      4  C   UNL     1      28.391  13.596  -5.434  1.00  0.00     0.042 A
ATOM      5  C   UNL     1      27.506  14.675  -5.439  1.00  0.00     0.036 A
ATOM      6  C   UNL     1      27.927  15.983  -5.760  1.00  0.00     0.022 A
ENDROOT
BRANCH   4   7
ATOM      7  N   UNL     1      28.010  12.295  -5.100  1.00  0.00    -0.324 N
ATOM      8  H   UNL     1      27.020  12.110  -5.033  1.00  0.00     0.170 HD
BRANCH   7   9
ATOM      9  C   UNL     1      28.715  11.102  -4.979  1.00  0.00     0.227 A
ATOM     10  C   UNL     1      29.981   8.690  -4.818  1.00  0.00    -0.006 A
ATOM     11  C   UNL     1      28.716   8.843  -5.345  1.00  0.00     0.120 A
ATOM     12  C   UNL     1      30.545   9.852  -4.307  1.00  0.00     0.079 A
ATOM     13  N   UNL     1      28.064  10.016  -5.414  1.00  0.00    -0.221 NA
ATOM     14  N   UNL     1      29.936  11.056  -4.428  1.00  0.00    -0.212 NA
ATOM     15  C   UNL     1      30.625   7.343  -4.794  1.00  0.00     0.048 C
BRANCH  12  16
ATOM     16  C   UNL     1      31.821   9.888  -3.564  1.00  0.00     0.001 A
ATOM     17  C   UNL     1      32.333   8.739  -2.937  1.00  0.00     0.010 A
ATOM     18  C   UNL     1      32.548  11.085  -3.423  1.00  0.00     0.016 A
ATOM     19  C   UNL     1      33.542   8.765  -2.240  1.00  0.00     0.001 A
ATOM     20  C   UNL     1      33.763  11.128  -2.714  1.00  0.00    -0.022 A
ATOM     21  C   UNL     1      34.257   9.953  -2.136  1.00  0.00     0.006 A
BRANCH  20  22
ATOM     22  C   UNL     1      34.507  12.430  -2.542  1.00  0.00     0.196 C
BRANCH  22  23
ATOM     23  O   UNL     1      33.637  13.536  -2.312  1.00  0.00    -0.373 OA
BRANCH  23  24
ATOM     24  C   UNL     1      33.861  14.621  -3.207  1.00  0.00     0.188 C
ATOM     25  G   UNL     1      32.594  15.399  -3.408  1.00  0.00     0.000 C
ENDBRANCH  23  24
ENDBRANCH  22  23
ENDBRANCH  20  22
ENDBRANCH  12  16
ENDBRANCH   7   9
ENDBRANCH   4   7
BRANCH   6  26
ATOM     26  C   UNL     1      26.918  17.104  -5.678  1.00  0.00     0.200 C
BRANCH  26  27
ATOM     27  O   UNL     1      26.106  17.239  -6.839  1.00  0.00    -0.372 OA
BRANCH  27  28
ATOM     28  C   UNL     1      25.838  18.593  -7.202  1.00  0.00     0.191 C
BRANCH  28  29
ATOM     29  C   UNL     1      26.199  18.774  -8.665  1.00  0.00    -0.046 C
ATOM     30  C   UNL     1      26.901  19.824  -9.143  1.00  0.00     0.003 C
ATOM     31  G   UNL     1      27.401  21.017  -8.383  1.00  0.00     0.000 C
BRANCH  29  32
ATOM     32  C   UNL     1      25.745  17.666  -9.603  1.00  0.00     0.033 C
BRANCH  32  33
ATOM     33  C   UNL     1      26.911  16.942 -10.292  1.00  0.00     0.006 C
BRANCH  33  34
ATOM     34  C   UNL     1      26.728  15.420 -10.402  1.00  0.00     0.019 C
ATOM     35  G   UNL     1      27.299  14.669  -9.174  1.00  0.00     0.000 C
ENDBRANCH  33  34
ENDBRANCH  32  33
ENDBRANCH  29  32
ENDBRANCH  28  29
ENDBRANCH  27  28
ENDBRANCH  26  27
ENDBRANCH   6  26
BRANCH   1  36
ATOM     36  O   UNL     1      29.612  17.495  -6.438  1.00  0.00    -0.492 OA
BRANCH  36  37
ATOM     37  C   UNL     1      30.405  18.189  -5.468  1.00  0.00     0.245 C
BRANCH  37  38
ATOM     38  C   UNL     1      31.676  18.769  -6.130  1.00  0.00     0.126 C
BRANCH  38  39
ATOM     39  N   UNL     1      32.400  19.750  -5.284  1.00  0.00    -0.297 NA
ATOM     40  C   UNL     1      31.503  20.369  -4.297  1.00  0.00     0.085 C
ATOM     41  C   UNL     1      32.924  20.885  -6.080  1.00  0.00     0.056 C
ATOM     42  C   UNL     1      30.822  21.519  -5.013  1.00  0.00     0.017 C
ATOM     43  C   UNL     1      31.773  21.899  -6.138  1.00  0.00     0.020 C
ATOM     44  G   UNL     1      34.192  21.467  -5.407  1.00  0.00     0.000 C
ENDBRANCH  38  39
ENDBRANCH  37  38
ENDBRANCH  36  37
ENDBRANCH   1  36
TORSDOF 0
ENDMDL
MODEL 8
REMARK VINA RESULT:      -7.7      3.118     10.779
REMARK SMILES Cc1cnc2nc1-c1cccc(c1)COCC=C1CCC[C@@H]3CCCN3CCOc3ccc(cc3COC1)N2
REMARK SMILES IDX 30 1 31 2 32 3 33 4 34 5 35 6 39 7 5 9 2 10 3 11 7 12 4 13
REMARK SMILES IDX 6 14 1 15 8 16 9 17 13 18 10 19 12 20 11 21 14 22 15 23
REMARK SMILES IDX 16 24 36 26 37 27 38 28 18 29 17 30 19 32 20 33 21 34 29 36
REMARK SMILES IDX 28 37 27 38 26 39 25 40 22 41 24 42 23 43
REMARK H PARENT 39 8
REMARK Flexibility Score:  100.800
ROOT
ATOM      1  C   UNL     1      30.636  15.500  -4.298  1.00  0.00     0.125 A
ATOM      2  C   UNL     1      29.333  15.918  -4.573  1.00  0.00     0.049 A
ATOM      3  C   UNL     1      28.351  14.992  -4.946  1.00  0.00     0.030 A
ATOM      4  C   UNL     1      28.640  13.627  -5.054  1.00  0.00     0.042 A
ATOM      5  C   UNL     1      29.938  13.215  -4.752  1.00  0.00     0.036 A
ATOM      6  C   UNL     1      30.950  14.135  -4.404  1.00  0.00     0.022 A
ENDROOT
BRANCH   4   7
ATOM      7  N   UNL     1      27.622  12.744  -5.422  1.00  0.00    -0.324 N
ATOM      8  H   UNL     1      26.905  12.560  -4.737  1.00  0.00     0.170 HD
BRANCH   7   9
ATOM      9  C   UNL     1      27.276  12.148  -6.630  1.00  0.00     0.227 A
ATOM     10  C   UNL     1      26.585  11.124  -9.063  1.00  0.00    -0.006 A
ATOM     11  C   UNL     1      26.620  12.476  -8.798  1.00  0.00     0.120 A
ATOM     12  C   UNL     1      26.864  10.308  -7.974  1.00  0.00     0.079 A
ATOM     13  N   UNL     1      26.935  13.004  -7.603  1.00  0.00    -0.221 NA
ATOM     14  N   UNL     1      27.251  10.817  -6.780  1.00  0.00    -0.212 NA
ATOM     15  C   UNL     1      26.230  10.637 -10.430  1.00  0.00     0.048 C
BRANCH  12  16
ATOM     16  C   UNL     1      26.735   8.836  -7.995  1.00  0.00     0.001 A
ATOM     17  C   UNL     1      25.477   8.216  -8.086  1.00  0.00     0.010 A
ATOM     18  C   UNL     1      27.864   8.005  -7.882  1.00  0.00     0.016 A
ATOM     19  C   UNL     1      25.349   6.827  -8.114  1.00  0.00     0.001 A
ATOM     20  C   UNL     1      27.749   6.603  -7.899  1.00  0.00    -0.022 A
ATOM     21  C   UNL     1      26.481   6.024  -8.028  1.00  0.00     0.006 A
BRANCH  20  22
ATOM     22  C   UNL     1      28.969   5.728  -7.738  1.00  0.00     0.196 C
BRANCH  22  23
ATOM     23  O   UNL     1      28.762   4.657  -6.820  1.00  0.00    -0.373 OA
BRANCH  23  24
ATOM     24  C   UNL     1      28.991   5.028  -5.464  1.00  0.00     0.188 C
ATOM     25  G   UNL     1      27.719   4.923  -4.675  1.00  0.00     0.000 C
ENDBRANCH  23  24
ENDBRANCH  22  23
ENDBRANCH  20  22
ENDBRANCH  12  16
ENDBRANCH   7   9
ENDBRANCH   4   7
BRANCH   6  26
ATOM     26  C   UNL     1      32.345  13.611  -4.156  1.00  0.00     0.200 C
BRANCH  26  27
ATOM     27  O   UNL     1      32.392  12.464  -3.314  1.00  0.00    -0.372 OA
BRANCH  27  28
ATOM     28  C   UNL     1      33.003  11.327  -3.922  1.00  0.00     0.191 C
BRANCH  28  29
ATOM     29  C   UNL     1      33.578  10.452  -2.824  1.00  0.00    -0.046 C
ATOM     30  C   UNL     1      34.651  10.791  -2.076  1.00  0.00     0.003 C
ATOM     31  G   UNL     1      35.506  12.017  -2.198  1.00  0.00     0.000 C
BRANCH  29  32
ATOM     32  C   UNL     1      32.853   9.140  -2.571  1.00  0.00     0.033 C
BRANCH  32  33
ATOM     33  C   UNL     1      31.371   9.182  -2.970  1.00  0.00     0.006 C
BRANCH  33  34
ATOM     34  C   UNL     1      31.039   8.382  -4.239  1.00  0.00     0.019 C
ATOM     35  G   UNL     1      29.907   9.038  -5.069  1.00  0.00     0.000 C
ENDBRANCH  33  34
ENDBRANCH  32  33
ENDBRANCH  29  32
ENDBRANCH  28  29
ENDBRANCH  27  28
ENDBRANCH  26  27
ENDBRANCH   6  26
BRANCH   1  36
ATOM     36  O   UNL     1      31.659  16.346  -3.963  1.00  0.00    -0.492 OA
BRANCH  36  37
ATOM     37  C   UNL     1      31.413  17.751  -4.102  1.00  0.00     0.245 C
BRANCH  37  38
ATOM     38  C   UNL     1      32.360  18.358  -5.162  1.00  0.00     0.126 C
BRANCH  38  39
ATOM     39  N   UNL     1      31.736  19.424  -5.986  1.00  0.00    -0.297 NA
ATOM     40  C   UNL     1      32.706  20.477  -6.318  1.00  0.00     0.085 C
ATOM     41  C   UNL     1      30.654  20.125  -5.255  1.00  0.00     0.056 C
ATOM     42  C   UNL     1      32.715  21.426  -5.136  1.00  0.00     0.017 C
ATOM     43  C   UNL     1      31.356  21.245  -4.477  1.00  0.00     0.020 C
ATOM     44  G   UNL     1      29.603  20.668  -6.255  1.00  0.00     0.000 C
ENDBRANCH  38  39
ENDBRANCH  37  38
ENDBRANCH  36  37
ENDBRANCH   1  36
TORSDOF 0
ENDMDL
MODEL 9
REMARK VINA RESULT:      -7.7      4.122      7.140
REMARK SMILES Cc1cnc2nc1-c1cccc(c1)COCC=C1CCC[C@@H]3CCCN3CCOc3ccc(cc3COC1)N2
REMARK SMILES IDX 30 1 31 2 32 3 33 4 34 5 35 6 39 7 5 9 2 10 3 11 7 12 4 13
REMARK SMILES IDX 6 14 1 15 8 16 9 17 13 18 10 19 12 20 11 21 14 22 15 23
REMARK SMILES IDX 16 24 36 26 37 27 38 28 18 29 17 30 19 32 20 33 21 34 29 36
REMARK SMILES IDX 28 37 27 38 26 39 25 40 22 41 24 42 23 43
REMARK H PARENT 39 8
REMARK Flexibility Score:  100.800
ROOT
ATOM      1  C   UNL     1      27.034  15.504  -7.328  1.00  0.00     0.125 A
ATOM      2  C   UNL     1      26.478  14.366  -7.916  1.00  0.00     0.049 A
ATOM      3  C   UNL     1      26.454  13.147  -7.227  1.00  0.00     0.030 A
ATOM      4  C   UNL     1      26.980  13.029  -5.937  1.00  0.00     0.042 A
ATOM      5  C   UNL     1      27.510  14.177  -5.346  1.00  0.00     0.036 A
ATOM      6  C   UNL     1      27.572  15.408  -6.034  1.00  0.00     0.022 A
ENDROOT
BRANCH   4   7
ATOM      7  N   UNL     1      26.924  11.792  -5.291  1.00  0.00    -0.324 N
ATOM      8  H   UNL     1      26.052  11.546  -4.846  1.00  0.00     0.170 HD
BRANCH   7   9
ATOM      9  C   UNL     1      27.791  10.705  -5.247  1.00  0.00     0.227 A
ATOM     10  C   UNL     1      29.384   8.489  -5.241  1.00  0.00    -0.006 A
ATOM     11  C   UNL     1      28.101   8.493  -5.744  1.00  0.00     0.120 A
ATOM     12  C   UNL     1      29.790   9.688  -4.669  1.00  0.00     0.079 A
ATOM     13  N   UNL     1      27.290   9.564  -5.738  1.00  0.00    -0.221 NA
ATOM     14  N   UNL     1      29.017  10.800  -4.712  1.00  0.00    -0.212 NA
ATOM     15  C   UNL     1      30.209   7.247  -5.302  1.00  0.00     0.048 C
BRANCH  12  16
ATOM     16  C   UNL     1      31.062   9.861  -3.937  1.00  0.00     0.001 A
ATOM     17  C   UNL     1      31.550   8.862  -3.077  1.00  0.00     0.010 A
ATOM     18  C   UNL     1      31.807  11.049  -4.045  1.00  0.00     0.016 A
ATOM     19  C   UNL     1      32.755   9.016  -2.390  1.00  0.00     0.001 A
ATOM     20  C   UNL     1      33.018  11.223  -3.350  1.00  0.00    -0.022 A
ATOM     21  C   UNL     1      33.489  10.189  -2.532  1.00  0.00     0.006 A
BRANCH  20  22
ATOM     22  C   UNL     1      33.784  12.520  -3.449  1.00  0.00     0.196 C
BRANCH  22  23
ATOM     23  O   UNL     1      33.468  13.428  -2.395  1.00  0.00    -0.373 OA
BRANCH  23  24
ATOM     24  C   UNL     1      33.206  14.750  -2.854  1.00  0.00     0.188 C
ATOM     25  G   UNL     1      32.069  14.745  -3.832  1.00  0.00     0.000 C
ENDBRANCH  23  24
ENDBRANCH  22  23
ENDBRANCH  20  22
ENDBRANCH  12  16
ENDBRANCH   7   9
ENDBRANCH   4   7
BRANCH   6  26
ATOM     26  C   UNL     1      28.221  16.585  -5.345  1.00  0.00     0.200 C
BRANCH  26  27
ATOM     27  O   UNL     1      29.642  16.591  -5.424  1.00  0.00    -0.372 OA
BRANCH  27  28
ATOM     28  C   UNL     1      30.153  17.297  -6.554  1.00  0.00     0.191 C
BRANCH  28  29
ATOM     29  C   UNL     1      30.593  18.675  -6.096  1.00  0.00    -0.046 C
ATOM     30  C   UNL     1      29.848  19.792  -6.246  1.00  0.00     0.003 C
ATOM     31  G   UNL     1      28.514  19.923  -6.921  1.00  0.00     0.000 C
BRANCH  29  32
ATOM     32  C   UNL     1      31.947  18.746  -5.407  1.00  0.00     0.033 C
BRANCH  32  33
ATOM     33  C   UNL     1      32.332  20.168  -4.975  1.00  0.00     0.006 C
BRANCH  33  34
ATOM     34  C   UNL     1      33.648  20.676  -5.585  1.00  0.00     0.019 C
ATOM     35  G   UNL     1      34.110  19.814  -6.787  1.00  0.00     0.000 C
ENDBRANCH  33  34
ENDBRANCH  32  33
ENDBRANCH  29  32
ENDBRANCH  28  29
ENDBRANCH  27  28
ENDBRANCH  26  27
ENDBRANCH   6  26
BRANCH   1  36
ATOM     36  O   UNL     1      27.128  16.721  -7.948  1.00  0.00    -0.492 OA
BRANCH  36  37
ATOM     37  C   UNL     1      25.901  17.338  -8.357  1.00  0.00     0.245 C
BRANCH  37  38
ATOM     38  C   UNL     1      26.046  17.929  -9.778  1.00  0.00     0.126 C
BRANCH  38  39
ATOM     39  N   UNL     1      26.778  17.050 -10.723  1.00  0.00    -0.297 NA
ATOM     40  C   UNL     1      27.208  17.793 -11.917  1.00  0.00     0.085 C
ATOM     41  C   UNL     1      25.918  15.962 -11.245  1.00  0.00     0.056 C
ATOM     42  C   UNL     1      26.022  17.787 -12.863  1.00  0.00     0.017 C
ATOM     43  C   UNL     1      25.212  16.562 -12.468  1.00  0.00     0.020 C
ATOM     44  G   UNL     1      26.781  14.728 -11.606  1.00  0.00     0.000 C
ENDBRANCH  38  39
ENDBRANCH  37  38
ENDBRANCH  36  37
ENDBRANCH   1  36
TORSDOF 0
ENDMDL
