MODEL 1
REMARK VINA RESULT:      -8.0      0.000      0.000
REMARK SMILES CC(C)(C)[C@H]1NC(=O)c2c[nH]c3ncc(nc23)C2(CC2)CSC[C@@H]2[C@@H](C#N)CN2C1=O
REMARK SMILES IDX 9 1 10 2 11 3 12 4 13 5 14 6 15 7 16 8 17 9 7 11 6 12 8 13
REMARK SMILES IDX 5 15 2 16 1 17 3 18 4 19 30 20 31 21 29 22 28 23 24 24 25 25
REMARK SMILES IDX 26 26 27 27 18 29 19 30 20 31 21 32 22 33 23 34
REMARK H PARENT 11 10 6 14
REMARK Flexibility Score:  106.900
ROOT
ATOM      1  C   UNL     1      33.270  14.622  -2.837  1.00  0.00     0.085 A
ATOM      2  C   UNL     1      34.534  15.128  -2.560  1.00  0.00     0.100 A
ATOM      3  N   UNL     1      35.405  14.075  -2.415  1.00  0.00    -0.344 N
ATOM      4  C   UNL     1      34.739  12.899  -2.624  1.00  0.00     0.156 A
ATOM      5  N   UNL     1      35.276  11.665  -2.621  1.00  0.00    -0.235 NA
ATOM      6  C   UNL     1      34.322  10.729  -2.880  1.00  0.00     0.138 A
ATOM      7  C   UNL     1      32.960  10.980  -3.115  1.00  0.00     0.067 A
ATOM      8  N   UNL     1      32.478  12.249  -3.107  1.00  0.00    -0.246 NA
ATOM      9  C   UNL     1      33.408  13.209  -2.859  1.00  0.00     0.120 A
ATOM     10  H   UNL     1      36.393  14.136  -2.216  1.00  0.00     0.168 HD
ENDROOT
BRANCH   1  11
ATOM     11  C   UNL     1      32.076  15.402  -3.125  1.00  0.00     0.255 C
ATOM     12  N   UNL     1      31.708  15.386  -4.445  1.00  0.00    -0.340 N
ATOM     13  O   UNL     1      31.501  16.068  -2.271  1.00  0.00    -0.269 OA
ATOM     14  H   UNL     1      32.250  14.803  -5.083  1.00  0.00     0.164 HD
BRANCH  12  15
ATOM     15  C   UNL     1      30.794  16.354  -5.053  1.00  0.00     0.177 C
BRANCH  15  16
ATOM     16  C   UNL     1      29.567  15.666  -5.725  1.00  0.00    -0.009 C
ATOM     17  C   UNL     1      29.903  14.181  -5.997  1.00  0.00     0.013 C
ATOM     18  C   UNL     1      29.173  16.309  -7.070  1.00  0.00     0.013 C
ATOM     19  C   UNL     1      28.354  15.694  -4.774  1.00  0.00     0.013 C
ENDBRANCH  15  16
BRANCH  15  20
ATOM     20  C   UNL     1      31.716  17.190  -5.981  1.00  0.00     0.246 C
ATOM     21  O   UNL     1      32.353  16.710  -6.914  1.00  0.00    -0.272 OA
BRANCH  20  22
ATOM     22  N   UNL     1      31.832  18.516  -5.646  1.00  0.00    -0.334 N
ATOM     23  C   UNL     1      31.456  19.290  -4.483  1.00  0.00     0.141 C
ATOM     24  C   UNL     1      32.297  19.658  -6.427  1.00  0.00     0.114 C
ATOM     25  C   UNL     1      31.573  20.539  -5.376  1.00  0.00     0.135 C
ATOM     26  C   UNL     1      30.314  21.107  -5.810  1.00  0.00     0.070 C
ATOM     27  N   UNL     1      29.310  21.584  -6.142  1.00  0.00    -0.198 NA
ATOM     28  G   UNL     1      33.821  19.822  -6.401  1.00  0.00     0.000 C
ENDBRANCH  20  22
ENDBRANCH  15  20
ENDBRANCH  12  15
ENDBRANCH   1  11
BRANCH   7  29
ATOM     29  C   UNL     1      31.975   9.847  -3.395  1.00  0.00     0.023 C
ATOM     30  C   UNL     1      31.466   9.043  -2.199  1.00  0.00     0.015 C
ATOM     31  C   UNL     1      32.449   8.416  -3.134  1.00  0.00     0.015 C
BRANCH  29  32
ATOM     32  C   UNL     1      31.039  10.075  -4.571  1.00  0.00     0.083 C
BRANCH  32  33
ATOM     33  S   UNL     1      29.480  10.866  -4.073  1.00  0.00    -0.159 SA
BRANCH  33  34
ATOM     34  C   UNL     1      28.344  10.146  -5.285  1.00  0.00     0.096 C
ATOM     35  G   UNL     1      27.516  11.218  -6.005  1.00  0.00     0.000 C
ENDBRANCH  33  34
ENDBRANCH  32  33
ENDBRANCH  29  32
ENDBRANCH   7  29
TORSDOF 1
ENDMDL
MODEL 2
REMARK VINA RESULT:      -8.0      2.142      3.956
REMARK SMILES CC(C)(C)[C@H]1NC(=O)c2c[nH]c3ncc(nc23)C2(CC2)CSC[C@@H]2[C@@H](C#N)CN2C1=O
REMARK SMILES IDX 9 1 10 2 11 3 12 4 13 5 14 6 15 7 16 8 17 9 7 11 6 12 8 13
REMARK SMILES IDX 5 15 2 16 1 17 3 18 4 19 30 20 31 21 29 22 28 23 24 24 25 25
REMARK SMILES IDX 26 26 27 27 18 29 19 30 20 31 21 32 22 33 23 34
REMARK H PARENT 11 10 6 14
REMARK Flexibility Score:  106.900
ROOT
ATOM      1  C   UNL     1      29.150  12.057  -4.556  1.00  0.00     0.085 A
ATOM      2  C   UNL     1      28.107  11.463  -5.253  1.00  0.00     0.100 A
ATOM      3  N   UNL     1      28.407  10.135  -5.442  1.00  0.00    -0.344 N
ATOM      4  C   UNL     1      29.608   9.850  -4.854  1.00  0.00     0.156 A
ATOM      5  N   UNL     1      30.197   8.642  -4.784  1.00  0.00    -0.235 NA
ATOM      6  C   UNL     1      31.378   8.725  -4.111  1.00  0.00     0.138 A
ATOM      7  C   UNL     1      31.935   9.892  -3.561  1.00  0.00     0.067 A
ATOM      8  N   UNL     1      31.291  11.081  -3.663  1.00  0.00    -0.246 NA
ATOM      9  C   UNL     1      30.103  11.030  -4.322  1.00  0.00     0.120 A
ATOM     10  H   UNL     1      27.831   9.450  -5.911  1.00  0.00     0.168 HD
ENDROOT
BRANCH   1  11
ATOM     11  C   UNL     1      29.200  13.437  -4.096  1.00  0.00     0.255 C
ATOM     12  N   UNL     1      28.962  14.359  -5.083  1.00  0.00    -0.340 N
ATOM     13  O   UNL     1      29.500  13.739  -2.947  1.00  0.00    -0.269 OA
ATOM     14  H   UNL     1      28.722  14.011  -6.011  1.00  0.00     0.164 HD
BRANCH  12  15
ATOM     15  C   UNL     1      29.307  15.777  -4.979  1.00  0.00     0.177 C
BRANCH  15  16
ATOM     16  C   UNL     1      28.197  16.700  -5.567  1.00  0.00    -0.009 C
ATOM     17  C   UNL     1      26.845  15.949  -5.540  1.00  0.00     0.013 C
ATOM     18  C   UNL     1      28.469  17.120  -7.026  1.00  0.00     0.013 C
ATOM     19  C   UNL     1      28.037  17.962  -4.696  1.00  0.00     0.013 C
ENDBRANCH  15  16
BRANCH  15  20
ATOM     20  C   UNL     1      30.706  15.860  -5.648  1.00  0.00     0.246 C
ATOM     21  O   UNL     1      31.223  14.925  -6.254  1.00  0.00    -0.272 OA
BRANCH  20  22
ATOM     22  N   UNL     1      31.375  17.043  -5.459  1.00  0.00    -0.334 N
ATOM     23  C   UNL     1      31.650  17.861  -4.297  1.00  0.00     0.141 C
ATOM     24  C   UNL     1      31.966  17.967  -6.422  1.00  0.00     0.114 C
ATOM     25  C   UNL     1      31.937  19.014  -5.277  1.00  0.00     0.135 C
ATOM     26  C   UNL     1      30.892  20.010  -5.379  1.00  0.00     0.070 C
ATOM     27  N   UNL     1      30.071  20.827  -5.450  1.00  0.00    -0.198 NA
ATOM     28  G   UNL     1      33.387  17.571  -6.838  1.00  0.00     0.000 C
ENDBRANCH  20  22
ENDBRANCH  15  20
ENDBRANCH  12  15
ENDBRANCH   1  11
BRANCH   7  29
ATOM     29  C   UNL     1      33.273   9.867  -2.826  1.00  0.00     0.023 C
ATOM     30  C   UNL     1      33.821   8.505  -2.401  1.00  0.00     0.015 C
ATOM     31  C   UNL     1      33.270   9.426  -1.361  1.00  0.00     0.015 C
BRANCH  29  32
ATOM     32  C   UNL     1      34.257  10.953  -3.231  1.00  0.00     0.083 C
BRANCH  32  33
ATOM     33  S   UNL     1      34.065  12.466  -2.243  1.00  0.00    -0.159 SA
BRANCH  33  34
ATOM     34  C   UNL     1      33.382  13.589  -3.489  1.00  0.00     0.096 C
ATOM     35  G   UNL     1      33.635  15.060  -3.138  1.00  0.00     0.000 C
ENDBRANCH  33  34
ENDBRANCH  32  33
ENDBRANCH  29  32
ENDBRANCH   7  29
TORSDOF 1
ENDMDL
MODEL 3
REMARK VINA RESULT:      -8.0      0.552      1.059
REMARK SMILES CC(C)(C)[C@H]1NC(=O)c2c[nH]c3ncc(nc23)C2(CC2)CSC[C@@H]2[C@@H](C#N)CN2C1=O
REMARK SMILES IDX 9 1 10 2 11 3 12 4 13 5 14 6 15 7 16 8 17 9 7 11 6 12 8 13
REMARK SMILES IDX 5 15 2 16 1 17 3 18 4 19 30 20 31 21 29 22 28 23 24 24 25 25
REMARK SMILES IDX 26 26 27 27 18 29 19 30 20 31 21 32 22 33 23 34
REMARK H PARENT 11 10 6 14
REMARK Flexibility Score:  106.900
ROOT
ATOM      1  C   UNL     1      33.015  14.668  -2.907  1.00  0.00     0.085 A
ATOM      2  C   UNL     1      34.238  15.280  -2.664  1.00  0.00     0.100 A
ATOM      3  N   UNL     1      35.189  14.302  -2.495  1.00  0.00    -0.344 N
ATOM      4  C   UNL     1      34.614  13.072  -2.655  1.00  0.00     0.156 A
ATOM      5  N   UNL     1      35.245  11.884  -2.618  1.00  0.00    -0.235 NA
ATOM      6  C   UNL     1      34.364  10.868  -2.833  1.00  0.00     0.138 A
ATOM      7  C   UNL     1      32.984  11.006  -3.059  1.00  0.00     0.067 A
ATOM      8  N   UNL     1      32.406  12.233  -3.087  1.00  0.00    -0.246 NA
ATOM      9  C   UNL     1      33.261  13.270  -2.884  1.00  0.00     0.120 A
ATOM     10  H   UNL     1      36.172  14.446  -2.311  1.00  0.00     0.168 HD
ENDROOT
BRANCH   1  11
ATOM     11  C   UNL     1      31.761  15.344  -3.205  1.00  0.00     0.255 C
ATOM     12  N   UNL     1      31.542  15.542  -4.545  1.00  0.00    -0.340 N
ATOM     13  O   UNL     1      31.010  15.759  -2.330  1.00  0.00    -0.269 OA
ATOM     14  H   UNL     1      32.227  15.162  -5.199  1.00  0.00     0.164 HD
BRANCH  12  15
ATOM     15  C   UNL     1      30.572  16.496  -5.084  1.00  0.00     0.177 C
BRANCH  15  16
ATOM     16  C   UNL     1      29.358  15.786  -5.756  1.00  0.00    -0.009 C
ATOM     17  C   UNL     1      28.104  15.977  -4.871  1.00  0.00     0.013 C
ATOM     18  C   UNL     1      29.570  14.270  -5.944  1.00  0.00     0.013 C
ATOM     19  C   UNL     1      29.055  16.430  -7.124  1.00  0.00     0.013 C
ENDBRANCH  15  16
BRANCH  15  20
ATOM     20  C   UNL     1      31.433  17.412  -5.995  1.00  0.00     0.246 C
ATOM     21  O   UNL     1      32.097  16.996  -6.940  1.00  0.00    -0.272 OA
BRANCH  20  22
ATOM     22  N   UNL     1      31.462  18.735  -5.631  1.00  0.00    -0.334 N
ATOM     23  C   UNL     1      30.791  19.505  -4.605  1.00  0.00     0.141 C
ATOM     24  C   UNL     1      32.126  19.879  -6.249  1.00  0.00     0.114 C
ATOM     25  C   UNL     1      31.150  20.758  -5.424  1.00  0.00     0.135 C
ATOM     26  C   UNL     1      30.058  21.338  -6.176  1.00  0.00     0.070 C
ATOM     27  N   UNL     1      29.184  21.825  -6.763  1.00  0.00    -0.198 NA
ATOM     28  G   UNL     1      33.588  20.031  -5.812  1.00  0.00     0.000 C
ENDBRANCH  20  22
ENDBRANCH  15  20
ENDBRANCH  12  15
ENDBRANCH   1  11
BRANCH   7  29
ATOM     29  C   UNL     1      32.087   9.792  -3.287  1.00  0.00     0.023 C
ATOM     30  C   UNL     1      31.514   9.095  -2.054  1.00  0.00     0.015 C
ATOM     31  C   UNL     1      32.607   8.429  -2.825  1.00  0.00     0.015 C
BRANCH  29  32
ATOM     32  C   UNL     1      31.250   9.831  -4.556  1.00  0.00     0.083 C
BRANCH  32  33
ATOM     33  S   UNL     1      29.552  10.402  -4.249  1.00  0.00    -0.159 SA
BRANCH  33  34
ATOM     34  C   UNL     1      28.671   9.543  -5.577  1.00  0.00     0.096 C
ATOM     35  G   UNL     1      29.193   8.116  -5.786  1.00  0.00     0.000 C
ENDBRANCH  33  34
ENDBRANCH  32  33
ENDBRANCH  29  32
ENDBRANCH   7  29
TORSDOF 1
ENDMDL
MODEL 4
REMARK VINA RESULT:      -7.9      2.806      5.044
REMARK SMILES CC(C)(C)[C@H]1NC(=O)c2c[nH]c3ncc(nc23)C2(CC2)CSC[C@@H]2[C@@H](C#N)CN2C1=O
REMARK SMILES IDX 9 1 10 2 11 3 12 4 13 5 14 6 15 7 16 8 17 9 7 11 6 12 8 13
REMARK SMILES IDX 5 15 2 16 1 17 3 18 4 19 30 20 31 21 29 22 28 23 24 24 25 25
REMARK SMILES IDX 26 26 27 27 18 29 19 30 20 31 21 32 22 33 23 34
REMARK H PARENT 11 10 6 14
REMARK Flexibility Score:  106.900
ROOT
ATOM      1  C   UNL     1      31.958  10.580  -3.904  1.00  0.00     0.085 A
ATOM      2  C   UNL     1      32.748  10.031  -2.903  1.00  0.00     0.100 A
ATOM      3  N   UNL     1      32.429   8.700  -2.773  1.00  0.00    -0.344 N
ATOM      4  C   UNL     1      31.472   8.369  -3.692  1.00  0.00     0.156 A
ATOM      5  N   UNL     1      30.954   7.144  -3.901  1.00  0.00    -0.235 NA
ATOM      6  C   UNL     1      30.035   7.179  -4.905  1.00  0.00     0.138 A
ATOM      7  C   UNL     1      29.652   8.317  -5.635  1.00  0.00     0.067 A
ATOM      8  N   UNL     1      30.213   9.526  -5.379  1.00  0.00    -0.246 NA
ATOM      9  C   UNL     1      31.142   9.523  -4.386  1.00  0.00     0.120 A
ATOM     10  H   UNL     1      32.845   8.042  -2.130  1.00  0.00     0.168 HD
ENDROOT
BRANCH   1  11
ATOM     11  C   UNL     1      32.026  11.946  -4.400  1.00  0.00     0.255 C
ATOM     12  N   UNL     1      31.491  12.874  -3.544  1.00  0.00    -0.340 N
ATOM     13  O   UNL     1      32.459  12.224  -5.513  1.00  0.00    -0.269 OA
ATOM     14  H   UNL     1      31.153  12.547  -2.639  1.00  0.00     0.164 HD
BRANCH  12  15
ATOM     15  C   UNL     1      31.106  14.229  -3.941  1.00  0.00     0.177 C
BRANCH  15  16
ATOM     16  C   UNL     1      31.739  15.317  -3.021  1.00  0.00    -0.009 C
ATOM     17  C   UNL     1      33.264  15.077  -2.925  1.00  0.00     0.013 C
ATOM     18  C   UNL     1      31.173  15.300  -1.586  1.00  0.00     0.013 C
ATOM     19  C   UNL     1      31.533  16.717  -3.633  1.00  0.00     0.013 C
ENDBRANCH  15  16
BRANCH  15  20
ATOM     20  C   UNL     1      29.555  14.168  -3.980  1.00  0.00     0.246 C
ATOM     21  O   UNL     1      28.890  13.403  -3.287  1.00  0.00    -0.272 OA
BRANCH  20  22
ATOM     22  N   UNL     1      28.962  14.990  -4.905  1.00  0.00    -0.334 N
ATOM     23  C   UNL     1      29.421  15.616  -6.127  1.00  0.00     0.141 C
ATOM     24  C   UNL     1      27.646  15.622  -4.913  1.00  0.00     0.114 C
ATOM     25  C   UNL     1      28.227  16.578  -5.988  1.00  0.00     0.135 C
ATOM     26  C   UNL     1      28.557  17.906  -5.518  1.00  0.00     0.070 C
ATOM     27  N   UNL     1      28.814  18.981  -5.165  1.00  0.00    -0.198 NA
ATOM     28  G   UNL     1      26.544  14.705  -5.456  1.00  0.00     0.000 C
ENDBRANCH  20  22
ENDBRANCH  15  20
ENDBRANCH  12  15
ENDBRANCH   1  11
BRANCH   7  29
ATOM     29  C   UNL     1      28.605   8.239  -6.743  1.00  0.00     0.023 C
ATOM     30  C   UNL     1      28.592   6.984  -7.616  1.00  0.00     0.015 C
ATOM     31  C   UNL     1      29.100   8.267  -8.190  1.00  0.00     0.015 C
BRANCH  29  32
ATOM     32  C   UNL     1      27.284   8.927  -6.438  1.00  0.00     0.083 C
BRANCH  32  33
ATOM     33  S   UNL     1      26.218   7.932  -5.354  1.00  0.00    -0.159 SA
BRANCH  33  34
ATOM     34  C   UNL     1      25.022   7.300  -6.558  1.00  0.00     0.096 C
ATOM     35  G   UNL     1      24.994   8.144  -7.838  1.00  0.00     0.000 C
ENDBRANCH  33  34
ENDBRANCH  32  33
ENDBRANCH  29  32
ENDBRANCH   7  29
TORSDOF 1
ENDMDL
MODEL 5
REMARK VINA RESULT:      -7.8      2.843      5.103
REMARK SMILES CC(C)(C)[C@H]1NC(=O)c2c[nH]c3ncc(nc23)C2(CC2)CSC[C@@H]2[C@@H](C#N)CN2C1=O
REMARK SMILES IDX 9 1 10 2 11 3 12 4 13 5 14 6 15 7 16 8 17 9 7 11 6 12 8 13
REMARK SMILES IDX 5 15 2 16 1 17 3 18 4 19 30 20 31 21 29 22 28 23 24 24 25 25
REMARK SMILES IDX 26 26 27 27 18 29 19 30 20 31 21 32 22 33 23 34
REMARK H PARENT 11 10 6 14
REMARK Flexibility Score:  106.900
ROOT
ATOM      1  C   UNL     1      31.858  10.552  -3.941  1.00  0.00     0.085 A
ATOM      2  C   UNL     1      32.579   9.987  -2.897  1.00  0.00     0.100 A
ATOM      3  N   UNL     1      32.236   8.660  -2.796  1.00  0.00    -0.344 N
ATOM      4  C   UNL     1      31.333   8.347  -3.774  1.00  0.00     0.156 A
ATOM      5  N   UNL     1      30.815   7.129  -4.022  1.00  0.00    -0.235 NA
ATOM      6  C   UNL     1      29.959   7.182  -5.080  1.00  0.00     0.138 A
ATOM      7  C   UNL     1      29.635   8.329  -5.824  1.00  0.00     0.067 A
ATOM      8  N   UNL     1      30.193   9.529  -5.526  1.00  0.00    -0.246 NA
ATOM      9  C   UNL     1      31.060   9.508  -4.479  1.00  0.00     0.120 A
ATOM     10  H   UNL     1      32.604   7.993  -2.133  1.00  0.00     0.168 HD
ENDROOT
BRANCH   1  11
ATOM     11  C   UNL     1      31.973  11.920  -4.422  1.00  0.00     0.255 C
ATOM     12  N   UNL     1      31.448  12.855  -3.567  1.00  0.00    -0.340 N
ATOM     13  O   UNL     1      32.433  12.196  -5.524  1.00  0.00    -0.269 OA
ATOM     14  H   UNL     1      31.084  12.529  -2.672  1.00  0.00     0.164 HD
BRANCH  12  15
ATOM     15  C   UNL     1      31.107  14.224  -3.958  1.00  0.00     0.177 C
BRANCH  15  16
ATOM     16  C   UNL     1      31.804  15.287  -3.056  1.00  0.00    -0.009 C
ATOM     17  C   UNL     1      31.503  16.699  -3.610  1.00  0.00     0.013 C
ATOM     18  C   UNL     1      33.336  15.123  -3.002  1.00  0.00     0.013 C
ATOM     19  C   UNL     1      31.235  15.225  -1.625  1.00  0.00     0.013 C
ENDBRANCH  15  16
BRANCH  15  20
ATOM     20  C   UNL     1      29.554  14.224  -3.960  1.00  0.00     0.246 C
ATOM     21  O   UNL     1      28.876  13.513  -3.224  1.00  0.00    -0.272 OA
BRANCH  20  22
ATOM     22  N   UNL     1      28.972  15.035  -4.902  1.00  0.00    -0.334 N
ATOM     23  C   UNL     1      29.458  15.682  -6.102  1.00  0.00     0.141 C
ATOM     24  C   UNL     1      27.640  15.630  -4.954  1.00  0.00     0.114 C
ATOM     25  C   UNL     1      28.232  16.609  -6.001  1.00  0.00     0.135 C
ATOM     26  C   UNL     1      28.506  17.943  -5.511  1.00  0.00     0.070 C
ATOM     27  N   UNL     1      28.719  19.022  -5.143  1.00  0.00    -0.198 NA
ATOM     28  G   UNL     1      26.585  14.685  -5.543  1.00  0.00     0.000 C
ENDBRANCH  20  22
ENDBRANCH  15  20
ENDBRANCH  12  15
ENDBRANCH   1  11
BRANCH   7  29
ATOM     29  C   UNL     1      28.656   8.271  -6.995  1.00  0.00     0.023 C
ATOM     30  C   UNL     1      28.598   6.975  -7.804  1.00  0.00     0.015 C
ATOM     31  C   UNL     1      29.242   8.182  -8.405  1.00  0.00     0.015 C
BRANCH  29  32
ATOM     32  C   UNL     1      27.378   9.073  -6.813  1.00  0.00     0.083 C
BRANCH  32  33
ATOM     33  S   UNL     1      25.929   8.012  -6.531  1.00  0.00    -0.159 SA
BRANCH  33  34
ATOM     34  C   UNL     1      26.012   7.813  -4.733  1.00  0.00     0.096 C
ATOM     35  G   UNL     1      25.140   6.650  -4.242  1.00  0.00     0.000 C
ENDBRANCH  33  34
ENDBRANCH  32  33
ENDBRANCH  29  32
ENDBRANCH   7  29
TORSDOF 1
ENDMDL
MODEL 6
REMARK VINA RESULT:      -7.7      0.937      1.061
REMARK SMILES CC(C)(C)[C@H]1NC(=O)c2c[nH]c3ncc(nc23)C2(CC2)CSC[C@@H]2[C@@H](C#N)CN2C1=O
REMARK SMILES IDX 9 1 10 2 11 3 12 4 13 5 14 6 15 7 16 8 17 9 7 11 6 12 8 13
REMARK SMILES IDX 5 15 2 16 1 17 3 18 4 19 30 20 31 21 29 22 28 23 24 24 25 25
REMARK SMILES IDX 26 26 27 27 18 29 19 30 20 31 21 32 22 33 23 34
REMARK H PARENT 11 10 6 14
REMARK Flexibility Score:  106.900
ROOT
ATOM      1  C   UNL     1      32.924  14.692  -2.803  1.00  0.00     0.085 A
ATOM      2  C   UNL     1      34.118  15.392  -2.685  1.00  0.00     0.100 A
ATOM      3  N   UNL     1      35.150  14.487  -2.607  1.00  0.00    -0.344 N
ATOM      4  C   UNL     1      34.651  13.217  -2.705  1.00  0.00     0.156 A
ATOM      5  N   UNL     1      35.367  12.077  -2.726  1.00  0.00    -0.235 NA
ATOM      6  C   UNL     1      34.544  10.999  -2.850  1.00  0.00     0.138 A
ATOM      7  C   UNL     1      33.142  11.036  -2.938  1.00  0.00     0.067 A
ATOM      8  N   UNL     1      32.477  12.219  -2.913  1.00  0.00    -0.246 NA
ATOM      9  C   UNL     1      33.272  13.316  -2.799  1.00  0.00     0.120 A
ATOM     10  H   UNL     1      36.133  14.702  -2.523  1.00  0.00     0.168 HD
ENDROOT
BRANCH   1  11
ATOM     11  C   UNL     1      31.602  15.274  -2.978  1.00  0.00     0.255 C
ATOM     12  N   UNL     1      31.122  15.185  -4.259  1.00  0.00    -0.340 N
ATOM     13  O   UNL     1      31.010  15.852  -2.074  1.00  0.00    -0.269 OA
ATOM     14  H   UNL     1      31.688  14.686  -4.945  1.00  0.00     0.164 HD
BRANCH  12  15
ATOM     15  C   UNL     1      30.016  15.991  -4.778  1.00  0.00     0.177 C
BRANCH  15  16
ATOM     16  C   UNL     1      28.790  15.119  -5.187  1.00  0.00    -0.009 C
ATOM     17  C   UNL     1      28.495  14.099  -4.063  1.00  0.00     0.013 C
ATOM     18  C   UNL     1      29.019  14.326  -6.489  1.00  0.00     0.013 C
ATOM     19  C   UNL     1      27.537  16.003  -5.343  1.00  0.00     0.013 C
ENDBRANCH  15  16
BRANCH  15  20
ATOM     20  C   UNL     1      30.677  16.832  -5.904  1.00  0.00     0.246 C
ATOM     21  O   UNL     1      30.554  16.579  -7.099  1.00  0.00    -0.272 OA
BRANCH  20  22
ATOM     22  N   UNL     1      31.481  17.856  -5.471  1.00  0.00    -0.334 N
ATOM     23  C   UNL     1      31.440  18.745  -4.330  1.00  0.00     0.141 C
ATOM     24  C   UNL     1      32.636  18.491  -6.099  1.00  0.00     0.114 C
ATOM     25  C   UNL     1      32.396  19.664  -5.114  1.00  0.00     0.135 C
ATOM     26  C   UNL     1      31.783  20.840  -5.694  1.00  0.00     0.070 C
ATOM     27  N   UNL     1      31.306  21.798  -6.142  1.00  0.00    -0.198 NA
ATOM     28  G   UNL     1      33.948  17.743  -5.834  1.00  0.00     0.000 C
ENDBRANCH  20  22
ENDBRANCH  15  20
ENDBRANCH  12  15
ENDBRANCH   1  11
BRANCH   7  29
ATOM     29  C   UNL     1      32.317   9.758  -3.072  1.00  0.00     0.023 C
ATOM     30  C   UNL     1      31.872   9.066  -1.784  1.00  0.00     0.015 C
ATOM     31  C   UNL     1      32.957   8.449  -2.606  1.00  0.00     0.015 C
BRANCH  29  32
ATOM     32  C   UNL     1      31.400   9.701  -4.283  1.00  0.00     0.083 C
BRANCH  32  33
ATOM     33  S   UNL     1      29.792  10.489  -3.972  1.00  0.00    -0.159 SA
BRANCH  33  34
ATOM     34  C   UNL     1      28.821   9.808  -5.341  1.00  0.00     0.096 C
ATOM     35  G   UNL     1      27.706  10.762  -5.786  1.00  0.00     0.000 C
ENDBRANCH  33  34
ENDBRANCH  32  33
ENDBRANCH  29  32
ENDBRANCH   7  29
TORSDOF 1
ENDMDL
MODEL 7
REMARK VINA RESULT:      -7.6      1.791      3.616
REMARK SMILES CC(C)(C)[C@H]1NC(=O)c2c[nH]c3ncc(nc23)C2(CC2)CSC[C@@H]2[C@@H](C#N)CN2C1=O
REMARK SMILES IDX 9 1 10 2 11 3 12 4 13 5 14 6 15 7 16 8 17 9 7 11 6 12 8 13
REMARK SMILES IDX 5 15 2 16 1 17 3 18 4 19 30 20 31 21 29 22 28 23 24 24 25 25
REMARK SMILES IDX 26 26 27 27 18 29 19 30 20 31 21 32 22 33 23 34
REMARK H PARENT 11 10 6 14
REMARK Flexibility Score:  106.900
ROOT
ATOM      1  C   UNL     1      33.362  14.640  -3.958  1.00  0.00     0.085 A
ATOM      2  C   UNL     1      34.422  15.281  -3.331  1.00  0.00     0.100 A
ATOM      3  N   UNL     1      35.041  14.384  -2.493  1.00  0.00    -0.344 N
ATOM      4  C   UNL     1      34.424  13.168  -2.591  1.00  0.00     0.156 A
ATOM      5  N   UNL     1      34.789  12.034  -1.962  1.00  0.00    -0.235 NA
ATOM      6  C   UNL     1      33.958  11.011  -2.304  1.00  0.00     0.138 A
ATOM      7  C   UNL     1      32.862  11.094  -3.179  1.00  0.00     0.067 A
ATOM      8  N   UNL     1      32.546  12.266  -3.784  1.00  0.00    -0.246 NA
ATOM      9  C   UNL     1      33.362  13.307  -3.470  1.00  0.00     0.120 A
ATOM     10  H   UNL     1      35.848  14.563  -1.912  1.00  0.00     0.168 HD
ENDROOT
BRANCH   1  11
ATOM     11  C   UNL     1      32.489  15.215  -4.971  1.00  0.00     0.255 C
ATOM     12  N   UNL     1      32.164  16.528  -4.742  1.00  0.00    -0.340 N
ATOM     13  O   UNL     1      32.033  14.558  -5.900  1.00  0.00    -0.269 OA
ATOM     14  H   UNL     1      32.591  16.990  -3.940  1.00  0.00     0.164 HD
BRANCH  12  15
ATOM     15  C   UNL     1      31.041  17.217  -5.380  1.00  0.00     0.177 C
BRANCH  15  16
ATOM     16  C   UNL     1      31.302  18.745  -5.544  1.00  0.00    -0.009 C
ATOM     17  C   UNL     1      32.630  18.953  -6.309  1.00  0.00     0.013 C
ATOM     18  C   UNL     1      31.417  19.487  -4.198  1.00  0.00     0.013 C
ATOM     19  C   UNL     1      30.183  19.388  -6.386  1.00  0.00     0.013 C
ENDBRANCH  15  16
BRANCH  15  20
ATOM     20  C   UNL     1      29.823  16.809  -4.507  1.00  0.00     0.246 C
ATOM     21  O   UNL     1      29.898  16.586  -3.302  1.00  0.00    -0.272 OA
BRANCH  20  22
ATOM     22  N   UNL     1      28.645  16.643  -5.191  1.00  0.00    -0.334 N
ATOM     23  C   UNL     1      27.350  17.287  -5.123  1.00  0.00     0.141 C
ATOM     24  C   UNL     1      28.253  15.649  -6.185  1.00  0.00     0.114 C
ATOM     25  C   UNL     1      26.791  16.059  -5.866  1.00  0.00     0.135 C
ATOM     26  C   UNL     1      26.054  15.123  -5.043  1.00  0.00     0.070 C
ATOM     27  N   UNL     1      25.441  14.380  -4.398  1.00  0.00    -0.198 NA
ATOM     28  G   UNL     1      28.684  16.021  -7.608  1.00  0.00     0.000 C
ENDBRANCH  20  22
ENDBRANCH  15  20
ENDBRANCH  12  15
ENDBRANCH   1  11
BRANCH   7  29
ATOM     29  C   UNL     1      31.994   9.876  -3.489  1.00  0.00     0.023 C
ATOM     30  C   UNL     1      31.494   9.046  -2.307  1.00  0.00     0.015 C
ATOM     31  C   UNL     1      32.574   8.495  -3.180  1.00  0.00     0.015 C
BRANCH  29  32
ATOM     32  C   UNL     1      31.104  10.008  -4.714  1.00  0.00     0.083 C
BRANCH  32  33
ATOM     33  S   UNL     1      29.390  10.432  -4.283  1.00  0.00    -0.159 SA
BRANCH  33  34
ATOM     34  C   UNL     1      29.287  12.110  -4.958  1.00  0.00     0.096 C
ATOM     35  G   UNL     1      29.269  13.173  -3.854  1.00  0.00     0.000 C
ENDBRANCH  33  34
ENDBRANCH  32  33
ENDBRANCH  29  32
ENDBRANCH   7  29
TORSDOF 1
ENDMDL
MODEL 8
REMARK VINA RESULT:      -7.6      1.679      2.076
REMARK SMILES CC(C)(C)[C@H]1NC(=O)c2c[nH]c3ncc(nc23)C2(CC2)CSC[C@@H]2[C@@H](C#N)CN2C1=O
REMARK SMILES IDX 9 1 10 2 11 3 12 4 13 5 14 6 15 7 16 8 17 9 7 11 6 12 8 13
REMARK SMILES IDX 5 15 2 16 1 17 3 18 4 19 30 20 31 21 29 22 28 23 24 24 25 25
REMARK SMILES IDX 26 26 27 27 18 29 19 30 20 31 21 32 22 33 23 34
REMARK H PARENT 11 10 6 14
REMARK Flexibility Score:  106.900
ROOT
ATOM      1  C   UNL     1      32.141  14.713  -3.160  1.00  0.00     0.085 A
ATOM      2  C   UNL     1      32.998  15.802  -3.070  1.00  0.00     0.100 A
ATOM      3  N   UNL     1      34.262  15.342  -2.788  1.00  0.00    -0.344 N
ATOM      4  C   UNL     1      34.248  13.977  -2.728  1.00  0.00     0.156 A
ATOM      5  N   UNL     1      35.311  13.175  -2.530  1.00  0.00    -0.235 NA
ATOM      6  C   UNL     1      34.931  11.867  -2.544  1.00  0.00     0.138 A
ATOM      7  C   UNL     1      33.623  11.389  -2.729  1.00  0.00     0.067 A
ATOM      8  N   UNL     1      32.592  12.249  -2.926  1.00  0.00    -0.246 NA
ATOM      9  C   UNL     1      32.940  13.563  -2.926  1.00  0.00     0.120 A
ATOM     10  H   UNL     1      35.093  15.904  -2.672  1.00  0.00     0.168 HD
ENDROOT
BRANCH   1  11
ATOM     11  C   UNL     1      30.729  14.757  -3.507  1.00  0.00     0.255 C
ATOM     12  N   UNL     1      30.407  15.752  -4.395  1.00  0.00    -0.340 N
ATOM     13  O   UNL     1      29.899  14.016  -2.994  1.00  0.00    -0.269 OA
ATOM     14  H   UNL     1      31.167  16.321  -4.767  1.00  0.00     0.164 HD
BRANCH  12  15
ATOM     15  C   UNL     1      29.046  16.242  -4.619  1.00  0.00     0.177 C
BRANCH  15  16
ATOM     16  C   UNL     1      28.351  15.527  -5.817  1.00  0.00    -0.009 C
ATOM     17  C   UNL     1      26.983  14.972  -5.354  1.00  0.00     0.013 C
ATOM     18  C   UNL     1      29.169  14.344  -6.374  1.00  0.00     0.013 C
ATOM     19  C   UNL     1      28.076  16.534  -6.951  1.00  0.00     0.013 C
ENDBRANCH  15  16
BRANCH  15  20
ATOM     20  C   UNL     1      29.229  17.779  -4.738  1.00  0.00     0.246 C
ATOM     21  O   UNL     1      28.301  18.580  -4.657  1.00  0.00    -0.272 OA
BRANCH  20  22
ATOM     22  N   UNL     1      30.507  18.195  -5.014  1.00  0.00    -0.334 N
ATOM     23  C   UNL     1      31.562  18.781  -4.216  1.00  0.00     0.141 C
ATOM     24  C   UNL     1      31.225  18.288  -6.282  1.00  0.00     0.114 C
ATOM     25  C   UNL     1      32.198  19.242  -5.540  1.00  0.00     0.135 C
ATOM     26  C   UNL     1      32.036  20.647  -5.847  1.00  0.00     0.070 C
ATOM     27  N   UNL     1      31.933  21.777  -6.089  1.00  0.00    -0.198 NA
ATOM     28  G   UNL     1      31.881  16.965  -6.698  1.00  0.00     0.000 C
ENDBRANCH  20  22
ENDBRANCH  15  20
ENDBRANCH  12  15
ENDBRANCH   1  11
BRANCH   7  29
ATOM     29  C   UNL     1      33.312   9.894  -2.724  1.00  0.00     0.023 C
ATOM     30  C   UNL     1      33.195   9.201  -1.367  1.00  0.00     0.015 C
ATOM     31  C   UNL     1      34.398   8.945  -2.215  1.00  0.00     0.015 C
BRANCH  29  32
ATOM     32  C   UNL     1      32.434   9.409  -3.867  1.00  0.00     0.083 C
BRANCH  32  33
ATOM     33  S   UNL     1      30.766   8.947  -3.311  1.00  0.00    -0.159 SA
BRANCH  33  34
ATOM     34  C   UNL     1      29.777   9.552  -4.702  1.00  0.00     0.096 C
ATOM     35  G   UNL     1      29.928  11.065  -4.901  1.00  0.00     0.000 C
ENDBRANCH  33  34
ENDBRANCH  32  33
ENDBRANCH  29  32
ENDBRANCH   7  29
TORSDOF 1
ENDMDL
MODEL 9
REMARK VINA RESULT:      -7.6      2.567      4.309
REMARK SMILES CC(C)(C)[C@H]1NC(=O)c2c[nH]c3ncc(nc23)C2(CC2)CSC[C@@H]2[C@@H](C#N)CN2C1=O
REMARK SMILES IDX 9 1 10 2 11 3 12 4 13 5 14 6 15 7 16 8 17 9 7 11 6 12 8 13
REMARK SMILES IDX 5 15 2 16 1 17 3 18 4 19 30 20 31 21 29 22 28 23 24 24 25 25
REMARK SMILES IDX 26 26 27 27 18 29 19 30 20 31 21 32 22 33 23 34
REMARK H PARENT 11 10 6 14
REMARK Flexibility Score:  106.900
ROOT
ATOM      1  C   UNL     1      32.588  11.974  -4.083  1.00  0.00     0.085 A
ATOM      2  C   UNL     1      33.565  11.987  -3.097  1.00  0.00     0.100 A
ATOM      3  N   UNL     1      33.569  10.764  -2.468  1.00  0.00    -0.344 N
ATOM      4  C   UNL     1      32.638   9.950  -3.049  1.00  0.00     0.156 A
ATOM      5  N   UNL     1      32.397   8.663  -2.737  1.00  0.00    -0.235 NA
ATOM      6  C   UNL     1      31.411   8.157  -3.529  1.00  0.00     0.138 A
ATOM      7  C   UNL     1      30.718   8.854  -4.533  1.00  0.00     0.067 A
ATOM      8  N   UNL     1      31.009  10.151  -4.802  1.00  0.00    -0.246 NA
ATOM      9  C   UNL     1      31.996  10.684  -4.034  1.00  0.00     0.120 A
ATOM     10  H   UNL     1      34.178  10.479  -1.714  1.00  0.00     0.168 HD
ENDROOT
BRANCH   1  11
ATOM     11  C   UNL     1      32.301  13.047  -5.023  1.00  0.00     0.255 C
ATOM     12  N   UNL     1      31.775  14.170  -4.437  1.00  0.00    -0.340 N
ATOM     13  O   UNL     1      32.452  12.924  -6.233  1.00  0.00    -0.269 OA
ATOM     14  H   UNL     1      31.685  14.179  -3.421  1.00  0.00     0.164 HD
BRANCH  12  15
ATOM     15  C   UNL     1      31.072  15.224  -5.171  1.00  0.00     0.177 C
BRANCH  15  16
ATOM     16  C   UNL     1      31.805  16.597  -5.078  1.00  0.00    -0.009 C
ATOM     17  C   UNL     1      33.159  16.402  -4.358  1.00  0.00     0.013 C
ATOM     18  C   UNL     1      31.006  17.657  -4.294  1.00  0.00     0.013 C
ATOM     19  C   UNL     1      32.110  17.133  -6.491  1.00  0.00     0.013 C
ENDBRANCH  15  16
BRANCH  15  20
ATOM     20  C   UNL     1      29.631  15.165  -4.597  1.00  0.00     0.246 C
ATOM     21  O   UNL     1      29.340  14.583  -3.555  1.00  0.00    -0.272 OA
BRANCH  20  22
ATOM     22  N   UNL     1      28.668  15.757  -5.375  1.00  0.00    -0.334 N
ATOM     23  C   UNL     1      28.633  16.210  -6.749  1.00  0.00     0.141 C
ATOM     24  C   UNL     1      27.336  16.247  -5.034  1.00  0.00     0.114 C
ATOM     25  C   UNL     1      27.411  17.060  -6.353  1.00  0.00     0.135 C
ATOM     26  C   UNL     1      27.671  18.475  -6.190  1.00  0.00     0.070 C
ATOM     27  N   UNL     1      27.863  19.613  -6.082  1.00  0.00    -0.198 NA
ATOM     28  G   UNL     1      26.267  15.147  -5.066  1.00  0.00     0.000 C
ENDBRANCH  20  22
ENDBRANCH  15  20
ENDBRANCH  12  15
ENDBRANCH   1  11
BRANCH   7  29
ATOM     29  C   UNL     1      29.624   8.183  -5.361  1.00  0.00     0.023 C
ATOM     30  C   UNL     1      29.236   8.841  -6.684  1.00  0.00     0.015 C
ATOM     31  C   UNL     1      28.299   8.929  -5.524  1.00  0.00     0.015 C
BRANCH  29  32
ATOM     32  C   UNL     1      29.570   6.667  -5.258  1.00  0.00     0.083 C
BRANCH  32  33
ATOM     33  S   UNL     1      29.287   5.873  -6.868  1.00  0.00    -0.159 SA
BRANCH  33  34
ATOM     34  C   UNL     1      27.529   5.460  -6.727  1.00  0.00     0.096 C
ATOM     35  G   UNL     1      26.684   6.170  -7.791  1.00  0.00     0.000 C
ENDBRANCH  33  34
ENDBRANCH  32  33
ENDBRANCH  29  32
ENDBRANCH   7  29
TORSDOF 1
ENDMDL
