MODEL 1
REMARK VINA RESULT:      -9.4      0.000      0.000
REMARK SMILES NC(=O)c1cnc2c3c1[nH]c1cc(ccc13)-c1ccc(nn1)N1CCS(=O)(=O)[C@@H](CSCC3(CC3)[C@H](C(F)(F)F)N2)C1
REMARK SMILES IDX 4 1 5 2 6 3 7 4 8 5 9 6 10 7 11 8 12 9 13 10 14 11 15 12
REMARK SMILES IDX 16 13 2 15 1 16 3 17 41 20 36 22 33 23 34 24 35 25 37 27
REMARK SMILES IDX 38 28 39 29 40 30 17 31 18 32 22 33 19 34 21 35 20 36 23 37
REMARK SMILES IDX 24 38 42 39 25 40 29 41 26 42 27 43 28 44 30 45 31 46 32 47
REMARK H PARENT 10 14 1 18 1 19 41 21
REMARK Flexibility Score:   57.900
ROOT
ATOM      1  C   UNL     1      34.060  10.603  -2.401  1.00  0.00     0.082 A
ATOM      2  C   UNL     1      34.586  11.887  -2.449  1.00  0.00     0.129 A
ATOM      3  N   UNL     1      34.061  12.931  -3.145  1.00  0.00    -0.238 NA
ATOM      4  C   UNL     1      32.932  12.750  -3.870  1.00  0.00     0.136 A
ATOM      5  C   UNL     1      32.262  11.510  -3.789  1.00  0.00     0.051 A
ATOM      6  C   UNL     1      32.865  10.452  -3.111  1.00  0.00     0.065 A
ATOM      7  N   UNL     1      32.086   9.333  -3.327  1.00  0.00    -0.354 N
ATOM      8  C   UNL     1      31.008   9.633  -4.125  1.00  0.00     0.047 A
ATOM      9  C   UNL     1      30.055   8.801  -4.737  1.00  0.00     0.037 A
ATOM     10  C   UNL     1      29.094   9.403  -5.572  1.00  0.00     0.004 A
ATOM     11  C   UNL     1      28.996  10.810  -5.582  1.00  0.00     0.011 A
ATOM     12  C   UNL     1      29.950  11.621  -4.968  1.00  0.00     0.012 A
ATOM     13  C   UNL     1      31.025  11.015  -4.306  1.00  0.00     0.011 A
ATOM     14  H   UNL     1      32.334   8.412  -2.985  1.00  0.00     0.167 HD
ENDROOT
BRANCH   1  15
ATOM     15  C   UNL     1      34.666   9.458  -1.690  1.00  0.00     0.252 C
ATOM     16  N   UNL     1      35.506   9.697  -0.641  1.00  0.00    -0.365 N
ATOM     17  O   UNL     1      34.417   8.307  -2.034  1.00  0.00    -0.269 OA
ATOM     18  H   UNL     1      35.749  10.604  -0.271  1.00  0.00     0.159 HD
ATOM     19  H   UNL     1      35.900   8.887  -0.179  1.00  0.00     0.159 HD
ENDBRANCH   1  15
BRANCH   4  20
ATOM     20  N   UNL     1      32.504  13.804  -4.671  1.00  0.00    -0.358 N
ATOM     21  H   UNL     1      32.169  13.394  -5.543  1.00  0.00     0.162 HD
BRANCH  20  22
ATOM     22  C   UNL     1      31.448  14.701  -4.103  1.00  0.00     0.193 C
BRANCH  22  23
ATOM     23  C   UNL     1      30.676  15.505  -5.194  1.00  0.00     0.009 C
ATOM     24  C   UNL     1      29.521  14.847  -5.958  1.00  0.00     0.011 C
ATOM     25  C   UNL     1      29.213  15.881  -4.929  1.00  0.00     0.011 C
ATOM     26  G   UNL     1      31.611  16.327  -6.094  1.00  0.00     0.000 C
ENDBRANCH  22  23
BRANCH  22  27
ATOM     27  C   UNL     1      31.891  15.497  -2.839  1.00  0.00     0.409 C
ATOM     28  F   UNL     1      33.197  15.859  -2.947  1.00  0.00    -0.169 F
ATOM     29  F   UNL     1      31.759  14.828  -1.676  1.00  0.00    -0.169 F
ATOM     30  F   UNL     1      31.190  16.656  -2.738  1.00  0.00    -0.169 F
ENDBRANCH  22  27
ENDBRANCH  20  22
ENDBRANCH   4  20
BRANCH  10  31
ATOM     31  C   UNL     1      28.372   8.661  -6.634  1.00  0.00     0.093 A
ATOM     32  C   UNL     1      29.057   8.168  -7.737  1.00  0.00     0.035 A
ATOM     33  N   UNL     1      27.053   8.928  -6.736  1.00  0.00    -0.148 NA
ATOM     34  C   UNL     1      28.466   8.293  -8.995  1.00  0.00     0.051 A
ATOM     35  N   UNL     1      26.485   9.063  -7.969  1.00  0.00    -0.132 NA
ATOM     36  C   UNL     1      27.232   8.922  -9.085  1.00  0.00     0.151 A
BRANCH  36  37
ATOM     37  N   UNL     1      26.947   9.782 -10.154  1.00  0.00    -0.353 N
ATOM     38  C   UNL     1      27.734   9.773 -11.387  1.00  0.00     0.134 C
ATOM     39  C   UNL     1      26.435  11.074  -9.642  1.00  0.00     0.138 C
ATOM     40  C   UNL     1      27.321  10.916 -12.303  1.00  0.00     0.159 C
ATOM     41  C   UNL     1      27.538  12.121  -9.769  1.00  0.00     0.138 C
ATOM     42  S   UNL     1      27.659  12.488 -11.510  1.00  0.00     0.157 S
ATOM     43  O   UNL     1      26.587  13.403 -11.853  1.00  0.00    -0.228 OA
ATOM     44  O   UNL     1      29.040  12.834 -11.791  1.00  0.00    -0.228 OA
BRANCH  41  45
ATOM     45  C   UNL     1      27.308  13.369  -8.918  1.00  0.00     0.091 C
BRANCH  45  46
ATOM     46  S   UNL     1      25.801  13.092  -7.903  1.00  0.00    -0.160 SA
BRANCH  46  47
ATOM     47  C   UNL     1      25.864  14.483  -6.741  1.00  0.00     0.079 C
ATOM     48  G   UNL     1      25.908  14.101  -5.254  1.00  0.00     0.000 C
ENDBRANCH  46  47
ENDBRANCH  45  46
ENDBRANCH  41  45
ENDBRANCH  36  37
ENDBRANCH  10  31
TORSDOF 2
ENDMDL
MODEL 2
REMARK VINA RESULT:      -9.4      1.193      1.612
REMARK SMILES NC(=O)c1cnc2c3c1[nH]c1cc(ccc13)-c1ccc(nn1)N1CCS(=O)(=O)[C@@H](CSCC3(CC3)[C@H](C(F)(F)F)N2)C1
REMARK SMILES IDX 4 1 5 2 6 3 7 4 8 5 9 6 10 7 11 8 12 9 13 10 14 11 15 12
REMARK SMILES IDX 16 13 2 15 1 16 3 17 41 20 36 22 33 23 34 24 35 25 37 27
REMARK SMILES IDX 38 28 39 29 40 30 17 31 18 32 22 33 19 34 21 35 20 36 23 37
REMARK SMILES IDX 24 38 42 39 25 40 29 41 26 42 27 43 28 44 30 45 31 46 32 47
REMARK H PARENT 10 14 1 18 1 19 41 21
REMARK Flexibility Score:   57.900
ROOT
ATOM      1  C   UNL     1      34.297  10.781  -2.277  1.00  0.00     0.082 A
ATOM      2  C   UNL     1      34.760  12.084  -2.401  1.00  0.00     0.129 A
ATOM      3  N   UNL     1      34.177  13.062  -3.147  1.00  0.00    -0.238 NA
ATOM      4  C   UNL     1      33.052  12.786  -3.848  1.00  0.00     0.136 A
ATOM      5  C   UNL     1      32.445  11.522  -3.691  1.00  0.00     0.051 A
ATOM      6  C   UNL     1      33.105  10.533  -2.963  1.00  0.00     0.065 A
ATOM      7  N   UNL     1      32.379   9.368  -3.109  1.00  0.00    -0.354 N
ATOM      8  C   UNL     1      31.281   9.571  -3.910  1.00  0.00     0.047 A
ATOM      9  C   UNL     1      30.364   8.661  -4.464  1.00  0.00     0.037 A
ATOM     10  C   UNL     1      29.367   9.169  -5.320  1.00  0.00     0.004 A
ATOM     11  C   UNL     1      29.201  10.568  -5.405  1.00  0.00     0.011 A
ATOM     12  C   UNL     1      30.120  11.457  -4.848  1.00  0.00     0.012 A
ATOM     13  C   UNL     1      31.229  10.940  -4.166  1.00  0.00     0.011 A
ATOM     14  H   UNL     1      32.675   8.480  -2.720  1.00  0.00     0.167 HD
ENDROOT
BRANCH   1  15
ATOM     15  C   UNL     1      34.965   9.708  -1.512  1.00  0.00     0.252 C
ATOM     16  N   UNL     1      35.864  10.045  -0.542  1.00  0.00    -0.365 N
ATOM     17  O   UNL     1      34.713   8.529  -1.740  1.00  0.00    -0.269 OA
ATOM     18  H   UNL     1      36.116  10.982  -0.267  1.00  0.00     0.159 HD
ATOM     19  H   UNL     1      36.300   9.282  -0.039  1.00  0.00     0.159 HD
ENDBRANCH   1  15
BRANCH   4  20
ATOM     20  N   UNL     1      32.566  13.773  -4.700  1.00  0.00    -0.358 N
ATOM     21  H   UNL     1      31.671  13.439  -5.056  1.00  0.00     0.162 HD
BRANCH  20  22
ATOM     22  C   UNL     1      32.393  15.143  -4.121  1.00  0.00     0.193 C
BRANCH  22  23
ATOM     23  C   UNL     1      31.155  15.257  -3.178  1.00  0.00     0.009 C
ATOM     24  C   UNL     1      31.282  14.883  -1.696  1.00  0.00     0.011 C
ATOM     25  C   UNL     1      31.171  16.321  -2.074  1.00  0.00     0.011 C
ATOM     26  G   UNL     1      29.866  14.733  -3.830  1.00  0.00     0.000 C
ENDBRANCH  22  23
BRANCH  22  27
ATOM     27  C   UNL     1      32.597  16.304  -5.140  1.00  0.00     0.409 C
ATOM     28  F   UNL     1      32.594  15.818  -6.410  1.00  0.00    -0.169 F
ATOM     29  F   UNL     1      33.742  16.998  -4.983  1.00  0.00    -0.169 F
ATOM     30  F   UNL     1      31.562  17.181  -5.074  1.00  0.00    -0.169 F
ENDBRANCH  22  27
ENDBRANCH  20  22
ENDBRANCH   4  20
BRANCH  10  31
ATOM     31  C   UNL     1      28.674   8.336  -6.330  1.00  0.00     0.093 A
ATOM     32  C   UNL     1      29.347   7.898  -7.464  1.00  0.00     0.035 A
ATOM     33  N   UNL     1      27.330   8.460  -6.363  1.00  0.00    -0.148 NA
ATOM     34  C   UNL     1      28.680   7.937  -8.688  1.00  0.00     0.051 A
ATOM     35  N   UNL     1      26.686   8.511  -7.564  1.00  0.00    -0.132 NA
ATOM     36  C   UNL     1      27.382   8.430  -8.718  1.00  0.00     0.151 A
BRANCH  36  37
ATOM     37  N   UNL     1      26.950   9.235  -9.780  1.00  0.00    -0.353 N
ATOM     38  C   UNL     1      27.851   9.651 -10.855  1.00  0.00     0.134 C
ATOM     39  C   UNL     1      25.916  10.185  -9.308  1.00  0.00     0.138 C
ATOM     40  C   UNL     1      27.172  10.654 -11.776  1.00  0.00     0.159 C
ATOM     41  C   UNL     1      26.542  11.571  -9.190  1.00  0.00     0.138 C
ATOM     42  S   UNL     1      26.766  12.144 -10.864  1.00  0.00     0.157 S
ATOM     43  O   UNL     1      25.488  12.632 -11.349  1.00  0.00    -0.228 OA
ATOM     44  O   UNL     1      27.936  13.003 -10.882  1.00  0.00    -0.228 OA
BRANCH  41  45
ATOM     45  C   UNL     1      25.732  12.546  -8.337  1.00  0.00     0.091 C
BRANCH  45  46
ATOM     46  S   UNL     1      26.790  13.082  -6.932  1.00  0.00    -0.160 SA
BRANCH  46  47
ATOM     47  C   UNL     1      25.656  14.132  -5.982  1.00  0.00     0.079 C
ATOM     48  G   UNL     1      26.240  14.745  -4.700  1.00  0.00     0.000 C
ENDBRANCH  46  47
ENDBRANCH  45  46
ENDBRANCH  41  45
ENDBRANCH  36  37
ENDBRANCH  10  31
TORSDOF 2
ENDMDL
MODEL 3
REMARK VINA RESULT:      -9.2      1.116      1.485
REMARK SMILES NC(=O)c1cnc2c3c1[nH]c1cc(ccc13)-c1ccc(nn1)N1CCS(=O)(=O)[C@@H](CSCC3(CC3)[C@H](C(F)(F)F)N2)C1
REMARK SMILES IDX 4 1 5 2 6 3 7 4 8 5 9 6 10 7 11 8 12 9 13 10 14 11 15 12
REMARK SMILES IDX 16 13 2 15 1 16 3 17 41 20 36 22 33 23 34 24 35 25 37 27
REMARK SMILES IDX 38 28 39 29 40 30 17 31 18 32 22 33 19 34 21 35 20 36 23 37
REMARK SMILES IDX 24 38 42 39 25 40 29 41 26 42 27 43 28 44 30 45 31 46 32 47
REMARK H PARENT 10 14 1 18 1 19 41 21
REMARK Flexibility Score:   57.900
ROOT
ATOM      1  C   UNL     1      34.272  10.780  -2.267  1.00  0.00     0.082 A
ATOM      2  C   UNL     1      34.739  12.086  -2.337  1.00  0.00     0.129 A
ATOM      3  N   UNL     1      34.159  13.095  -3.040  1.00  0.00    -0.238 NA
ATOM      4  C   UNL     1      33.032  12.853  -3.751  1.00  0.00     0.136 A
ATOM      5  C   UNL     1      32.421  11.585  -3.646  1.00  0.00     0.051 A
ATOM      6  C   UNL     1      33.078  10.565  -2.961  1.00  0.00     0.065 A
ATOM      7  N   UNL     1      32.349   9.409  -3.154  1.00  0.00    -0.354 N
ATOM      8  C   UNL     1      31.250   9.649  -3.944  1.00  0.00     0.047 A
ATOM      9  C   UNL     1      30.330   8.766  -4.534  1.00  0.00     0.037 A
ATOM     10  C   UNL     1      29.333   9.313  -5.366  1.00  0.00     0.004 A
ATOM     11  C   UNL     1      29.172  10.714  -5.393  1.00  0.00     0.011 A
ATOM     12  C   UNL     1      30.094  11.576  -4.801  1.00  0.00     0.012 A
ATOM     13  C   UNL     1      31.202  11.028  -4.143  1.00  0.00     0.011 A
ATOM     14  H   UNL     1      32.642   8.505  -2.803  1.00  0.00     0.167 HD
ENDROOT
BRANCH   1  15
ATOM     15  C   UNL     1      34.938   9.674  -1.548  1.00  0.00     0.252 C
ATOM     16  N   UNL     1      35.778   9.965  -0.512  1.00  0.00    -0.365 N
ATOM     17  O   UNL     1      34.736   8.507  -1.872  1.00  0.00    -0.269 OA
ATOM     18  H   UNL     1      35.986  10.886  -0.158  1.00  0.00     0.159 HD
ATOM     19  H   UNL     1      36.214   9.180  -0.044  1.00  0.00     0.159 HD
ENDBRANCH   1  15
BRANCH   4  20
ATOM     20  N   UNL     1      32.549  13.876  -4.560  1.00  0.00    -0.358 N
ATOM     21  H   UNL     1      31.675  13.541  -4.967  1.00  0.00     0.162 HD
BRANCH  20  22
ATOM     22  C   UNL     1      32.317  15.204  -3.908  1.00  0.00     0.193 C
BRANCH  22  23
ATOM     23  C   UNL     1      30.921  15.314  -3.221  1.00  0.00     0.009 C
ATOM     24  C   UNL     1      29.799  16.119  -3.889  1.00  0.00     0.011 C
ATOM     25  C   UNL     1      29.721  14.629  -3.887  1.00  0.00     0.011 C
ATOM     26  G   UNL     1      31.024  15.554  -1.707  1.00  0.00     0.000 C
ENDBRANCH  22  23
BRANCH  22  27
ATOM     27  C   UNL     1      32.768  16.428  -4.761  1.00  0.00     0.409 C
ATOM     28  F   UNL     1      32.276  17.578  -4.226  1.00  0.00    -0.169 F
ATOM     29  F   UNL     1      32.378  16.391  -6.050  1.00  0.00    -0.169 F
ATOM     30  F   UNL     1      34.120  16.553  -4.735  1.00  0.00    -0.169 F
ENDBRANCH  22  27
ENDBRANCH  20  22
ENDBRANCH   4  20
BRANCH  10  31
ATOM     31  C   UNL     1      28.635   8.525  -6.410  1.00  0.00     0.093 A
ATOM     32  C   UNL     1      29.290   8.178  -7.585  1.00  0.00     0.035 A
ATOM     33  N   UNL     1      27.288   8.612  -6.401  1.00  0.00    -0.148 NA
ATOM     34  C   UNL     1      28.589   8.273  -8.788  1.00  0.00     0.051 A
ATOM     35  N   UNL     1      26.611   8.720  -7.580  1.00  0.00    -0.132 NA
ATOM     36  C   UNL     1      27.278   8.731  -8.754  1.00  0.00     0.151 A
BRANCH  36  37
ATOM     37  N   UNL     1      26.797   9.588  -9.752  1.00  0.00    -0.353 N
ATOM     38  C   UNL     1      27.587   9.920 -10.938  1.00  0.00     0.134 C
ATOM     39  C   UNL     1      25.938  10.634  -9.151  1.00  0.00     0.138 C
ATOM     40  C   UNL     1      26.901  10.997 -11.764  1.00  0.00     0.159 C
ATOM     41  C   UNL     1      26.716  11.946  -9.121  1.00  0.00     0.138 C
ATOM     42  S   UNL     1      26.776  12.511 -10.811  1.00  0.00     0.157 S
ATOM     43  O   UNL     1      25.504  13.134 -11.124  1.00  0.00    -0.228 OA
ATOM     44  O   UNL     1      28.016  13.244 -10.986  1.00  0.00    -0.228 OA
BRANCH  41  45
ATOM     45  C   UNL     1      26.131  12.991  -8.171  1.00  0.00     0.091 C
BRANCH  45  46
ATOM     46  S   UNL     1      27.522  13.990  -7.503  1.00  0.00    -0.160 SA
BRANCH  46  47
ATOM     47  C   UNL     1      26.766  14.769  -6.050  1.00  0.00     0.079 C
ATOM     48  G   UNL     1      25.576  14.015  -5.438  1.00  0.00     0.000 C
ENDBRANCH  46  47
ENDBRANCH  45  46
ENDBRANCH  41  45
ENDBRANCH  36  37
ENDBRANCH  10  31
TORSDOF 2
ENDMDL
MODEL 4
REMARK VINA RESULT:      -8.8      0.713      1.025
REMARK SMILES NC(=O)c1cnc2c3c1[nH]c1cc(ccc13)-c1ccc(nn1)N1CCS(=O)(=O)[C@@H](CSCC3(CC3)[C@H](C(F)(F)F)N2)C1
REMARK SMILES IDX 4 1 5 2 6 3 7 4 8 5 9 6 10 7 11 8 12 9 13 10 14 11 15 12
REMARK SMILES IDX 16 13 2 15 1 16 3 17 41 20 36 22 33 23 34 24 35 25 37 27
REMARK SMILES IDX 38 28 39 29 40 30 17 31 18 32 22 33 19 34 21 35 20 36 23 37
REMARK SMILES IDX 24 38 42 39 25 40 29 41 26 42 27 43 28 44 30 45 31 46 32 47
REMARK H PARENT 10 14 1 18 1 19 41 21
REMARK Flexibility Score:   57.900
ROOT
ATOM      1  C   UNL     1      34.019  10.531  -2.410  1.00  0.00     0.082 A
ATOM      2  C   UNL     1      34.576  11.802  -2.440  1.00  0.00     0.129 A
ATOM      3  N   UNL     1      34.081  12.865  -3.128  1.00  0.00    -0.238 NA
ATOM      4  C   UNL     1      32.954  12.719  -3.864  1.00  0.00     0.136 A
ATOM      5  C   UNL     1      32.254  11.495  -3.801  1.00  0.00     0.051 A
ATOM      6  C   UNL     1      32.826  10.416  -3.129  1.00  0.00     0.065 A
ATOM      7  N   UNL     1      32.021   9.318  -3.363  1.00  0.00    -0.354 N
ATOM      8  C   UNL     1      30.957   9.653  -4.166  1.00  0.00     0.047 A
ATOM      9  C   UNL     1      29.989   8.850  -4.793  1.00  0.00     0.037 A
ATOM     10  C   UNL     1      29.049   9.485  -5.629  1.00  0.00     0.004 A
ATOM     11  C   UNL     1      28.986  10.894  -5.625  1.00  0.00     0.011 A
ATOM     12  C   UNL     1      29.954  11.675  -4.995  1.00  0.00     0.012 A
ATOM     13  C   UNL     1      31.009  11.036  -4.332  1.00  0.00     0.011 A
ATOM     14  H   UNL     1      32.244   8.388  -3.029  1.00  0.00     0.167 HD
ENDROOT
BRANCH   1  15
ATOM     15  C   UNL     1      34.592   9.364  -1.707  1.00  0.00     0.252 C
ATOM     16  N   UNL     1      35.454   9.572  -0.669  1.00  0.00    -0.365 N
ATOM     17  O   UNL     1      34.295   8.223  -2.046  1.00  0.00    -0.269 OA
ATOM     18  H   UNL     1      35.737  10.468  -0.303  1.00  0.00     0.159 HD
ATOM     19  H   UNL     1      35.824   8.748  -0.212  1.00  0.00     0.159 HD
ENDBRANCH   1  15
BRANCH   4  20
ATOM     20  N   UNL     1      32.558  13.792  -4.656  1.00  0.00    -0.358 N
ATOM     21  H   UNL     1      32.218  13.399  -5.534  1.00  0.00     0.162 HD
BRANCH  20  22
ATOM     22  C   UNL     1      31.521  14.709  -4.085  1.00  0.00     0.193 C
BRANCH  22  23
ATOM     23  C   UNL     1      30.809  15.578  -5.169  1.00  0.00     0.009 C
ATOM     24  C   UNL     1      29.658  14.987  -5.991  1.00  0.00     0.011 C
ATOM     25  C   UNL     1      29.352  15.993  -4.933  1.00  0.00     0.011 C
ATOM     26  G   UNL     1      31.798  16.400  -6.009  1.00  0.00     0.000 C
ENDBRANCH  22  23
BRANCH  22  27
ATOM     27  C   UNL     1      31.959  15.446  -2.784  1.00  0.00     0.409 C
ATOM     28  F   UNL     1      31.253  16.600  -2.639  1.00  0.00    -0.169 F
ATOM     29  F   UNL     1      33.266  15.770  -2.731  1.00  0.00    -0.169 F
ATOM     30  F   UNL     1      31.669  14.692  -1.691  1.00  0.00    -0.169 F
ENDBRANCH  22  27
ENDBRANCH  20  22
ENDBRANCH   4  20
BRANCH  10  31
ATOM     31  C   UNL     1      28.318   8.772  -6.703  1.00  0.00     0.093 A
ATOM     32  C   UNL     1      29.012   8.074  -7.684  1.00  0.00     0.035 A
ATOM     33  N   UNL     1      27.078   9.236  -6.970  1.00  0.00    -0.148 NA
ATOM     34  C   UNL     1      28.574   8.173  -9.004  1.00  0.00     0.051 A
ATOM     35  N   UNL     1      26.663   9.343  -8.265  1.00  0.00    -0.132 NA
ATOM     36  C   UNL     1      27.478   8.981  -9.278  1.00  0.00     0.151 A
BRANCH  36  37
ATOM     37  N   UNL     1      27.447   9.771 -10.435  1.00  0.00    -0.353 N
ATOM     38  C   UNL     1      28.578  10.607 -10.834  1.00  0.00     0.134 C
ATOM     39  C   UNL     1      26.072  10.270 -10.670  1.00  0.00     0.138 C
ATOM     40  C   UNL     1      28.213  11.485 -12.022  1.00  0.00     0.159 C
ATOM     41  C   UNL     1      26.015  11.745 -10.283  1.00  0.00     0.138 C
ATOM     42  S   UNL     1      26.898  12.615 -11.566  1.00  0.00     0.157 S
ATOM     43  O   UNL     1      26.012  12.757 -12.706  1.00  0.00    -0.228 OA
ATOM     44  O   UNL     1      27.512  13.783 -10.962  1.00  0.00    -0.228 OA
BRANCH  41  45
ATOM     45  C   UNL     1      24.597  12.277 -10.079  1.00  0.00     0.091 C
BRANCH  45  46
ATOM     46  S   UNL     1      24.476  12.918  -8.360  1.00  0.00    -0.160 SA
BRANCH  46  47
ATOM     47  C   UNL     1      26.210  12.913  -7.829  1.00  0.00     0.079 C
ATOM     48  G   UNL     1      26.460  13.366  -6.383  1.00  0.00     0.000 C
ENDBRANCH  46  47
ENDBRANCH  45  46
ENDBRANCH  41  45
ENDBRANCH  36  37
ENDBRANCH  10  31
TORSDOF 2
ENDMDL
MODEL 5
REMARK VINA RESULT:      -8.8      1.044      1.208
REMARK SMILES NC(=O)c1cnc2c3c1[nH]c1cc(ccc13)-c1ccc(nn1)N1CCS(=O)(=O)[C@@H](CSCC3(CC3)[C@H](C(F)(F)F)N2)C1
REMARK SMILES IDX 4 1 5 2 6 3 7 4 8 5 9 6 10 7 11 8 12 9 13 10 14 11 15 12
REMARK SMILES IDX 16 13 2 15 1 16 3 17 41 20 36 22 33 23 34 24 35 25 37 27
REMARK SMILES IDX 38 28 39 29 40 30 17 31 18 32 22 33 19 34 21 35 20 36 23 37
REMARK SMILES IDX 24 38 42 39 25 40 29 41 26 42 27 43 28 44 30 45 31 46 32 47
REMARK H PARENT 10 14 1 18 1 19 41 21
REMARK Flexibility Score:   57.900
ROOT
ATOM      1  C   UNL     1      34.083  10.638  -2.353  1.00  0.00     0.082 A
ATOM      2  C   UNL     1      34.493  11.964  -2.383  1.00  0.00     0.129 A
ATOM      3  N   UNL     1      33.875  12.967  -3.061  1.00  0.00    -0.238 NA
ATOM      4  C   UNL     1      32.764  12.698  -3.786  1.00  0.00     0.136 A
ATOM      5  C   UNL     1      32.207  11.402  -3.722  1.00  0.00     0.051 A
ATOM      6  C   UNL     1      32.904  10.392  -3.062  1.00  0.00     0.065 A
ATOM      7  N   UNL     1      32.226   9.212  -3.293  1.00  0.00    -0.354 N
ATOM      8  C   UNL     1      31.122   9.427  -4.084  1.00  0.00     0.047 A
ATOM      9  C   UNL     1      30.245   8.523  -4.706  1.00  0.00     0.037 A
ATOM     10  C   UNL     1      29.231   9.050  -5.530  1.00  0.00     0.004 A
ATOM     11  C   UNL     1      29.009  10.443  -5.518  1.00  0.00     0.011 A
ATOM     12  C   UNL     1      29.889  11.326  -4.894  1.00  0.00     0.012 A
ATOM     13  C   UNL     1      31.017  10.807  -4.244  1.00  0.00     0.011 A
ATOM     14  H   UNL     1      32.556   8.311  -2.966  1.00  0.00     0.167 HD
ENDROOT
BRANCH   1  15
ATOM     15  C   UNL     1      34.791   9.541  -1.661  1.00  0.00     0.252 C
ATOM     16  N   UNL     1      35.616   9.839  -0.615  1.00  0.00    -0.365 N
ATOM     17  O   UNL     1      34.638   8.376  -2.017  1.00  0.00    -0.269 OA
ATOM     18  H   UNL     1      35.786  10.758  -0.237  1.00  0.00     0.159 HD
ATOM     19  H   UNL     1      36.083   9.060  -0.167  1.00  0.00     0.159 HD
ENDBRANCH   1  15
BRANCH   4  20
ATOM     20  N   UNL     1      32.241  13.722  -4.569  1.00  0.00    -0.358 N
ATOM     21  H   UNL     1      31.814  13.280  -5.384  1.00  0.00     0.162 HD
BRANCH  20  22
ATOM     22  C   UNL     1      31.247  14.633  -3.918  1.00  0.00     0.193 C
BRANCH  22  23
ATOM     23  C   UNL     1      30.015  14.944  -4.824  1.00  0.00     0.009 C
ATOM     24  C   UNL     1      28.616  14.482  -4.401  1.00  0.00     0.011 C
ATOM     25  C   UNL     1      28.960  15.931  -4.311  1.00  0.00     0.011 C
ATOM     26  G   UNL     1      30.307  14.715  -6.315  1.00  0.00     0.000 C
ENDBRANCH  22  23
BRANCH  22  27
ATOM     27  C   UNL     1      31.878  15.844  -3.168  1.00  0.00     0.409 C
ATOM     28  F   UNL     1      31.685  16.988  -3.880  1.00  0.00    -0.169 F
ATOM     29  F   UNL     1      33.202  15.738  -2.939  1.00  0.00    -0.169 F
ATOM     30  F   UNL     1      31.260  16.039  -1.975  1.00  0.00    -0.169 F
ENDBRANCH  22  27
ENDBRANCH  20  22
ENDBRANCH   4  20
BRANCH  10  31
ATOM     31  C   UNL     1      28.574   8.263  -6.600  1.00  0.00     0.093 A
ATOM     32  C   UNL     1      29.066   8.294  -7.899  1.00  0.00     0.035 A
ATOM     33  N   UNL     1      27.274   7.966  -6.390  1.00  0.00    -0.148 NA
ATOM     34  C   UNL     1      28.154   8.368  -8.952  1.00  0.00     0.051 A
ATOM     35  N   UNL     1      26.386   8.054  -7.421  1.00  0.00    -0.132 NA
ATOM     36  C   UNL     1      26.800   8.428  -8.651  1.00  0.00     0.151 A
BRANCH  36  37
ATOM     37  N   UNL     1      25.942   9.254  -9.388  1.00  0.00    -0.353 N
ATOM     38  C   UNL     1      25.746   9.082 -10.828  1.00  0.00     0.134 C
ATOM     39  C   UNL     1      25.955  10.626  -8.829  1.00  0.00     0.138 C
ATOM     40  C   UNL     1      24.905  10.213 -11.401  1.00  0.00     0.159 C
ATOM     41  C   UNL     1      26.773  11.523  -9.753  1.00  0.00     0.138 C
ATOM     42  S   UNL     1      25.763  11.774 -11.201  1.00  0.00     0.157 S
ATOM     43  O   UNL     1      24.776  12.792 -10.891  1.00  0.00    -0.228 OA
ATOM     44  O   UNL     1      26.654  11.935 -12.336  1.00  0.00    -0.228 OA
BRANCH  41  45
ATOM     45  C   UNL     1      27.217  12.835  -9.109  1.00  0.00     0.091 C
BRANCH  45  46
ATOM     46  S   UNL     1      26.686  12.810  -7.349  1.00  0.00    -0.160 SA
BRANCH  46  47
ATOM     47  C   UNL     1      25.769  14.368  -7.207  1.00  0.00     0.079 C
ATOM     48  G   UNL     1      26.601  15.645  -7.399  1.00  0.00     0.000 C
ENDBRANCH  46  47
ENDBRANCH  45  46
ENDBRANCH  41  45
ENDBRANCH  36  37
ENDBRANCH  10  31
TORSDOF 2
ENDMDL
MODEL 6
REMARK VINA RESULT:      -8.7      0.857      1.029
REMARK SMILES NC(=O)c1cnc2c3c1[nH]c1cc(ccc13)-c1ccc(nn1)N1CCS(=O)(=O)[C@@H](CSCC3(CC3)[C@H](C(F)(F)F)N2)C1
REMARK SMILES IDX 4 1 5 2 6 3 7 4 8 5 9 6 10 7 11 8 12 9 13 10 14 11 15 12
REMARK SMILES IDX 16 13 2 15 1 16 3 17 41 20 36 22 33 23 34 24 35 25 37 27
REMARK SMILES IDX 38 28 39 29 40 30 17 31 18 32 22 33 19 34 21 35 20 36 23 37
REMARK SMILES IDX 24 38 42 39 25 40 29 41 26 42 27 43 28 44 30 45 31 46 32 47
REMARK H PARENT 10 14 1 18 1 19 41 21
REMARK Flexibility Score:   57.900
ROOT
ATOM      1  C   UNL     1      34.385  11.338  -2.279  1.00  0.00     0.082 A
ATOM      2  C   UNL     1      34.830  12.644  -2.431  1.00  0.00     0.129 A
ATOM      3  N   UNL     1      34.221  13.604  -3.178  1.00  0.00    -0.238 NA
ATOM      4  C   UNL     1      33.085  13.306  -3.852  1.00  0.00     0.136 A
ATOM      5  C   UNL     1      32.496  12.037  -3.666  1.00  0.00     0.051 A
ATOM      6  C   UNL     1      33.182  11.066  -2.937  1.00  0.00     0.065 A
ATOM      7  N   UNL     1      32.468   9.891  -3.052  1.00  0.00    -0.354 N
ATOM      8  C   UNL     1      31.351  10.070  -3.833  1.00  0.00     0.047 A
ATOM      9  C   UNL     1      30.434   9.142  -4.356  1.00  0.00     0.037 A
ATOM     10  C   UNL     1      29.414   9.626  -5.197  1.00  0.00     0.004 A
ATOM     11  C   UNL     1      29.230  11.021  -5.299  1.00  0.00     0.011 A
ATOM     12  C   UNL     1      30.149  11.928  -4.773  1.00  0.00     0.012 A
ATOM     13  C   UNL     1      31.278  11.434  -4.107  1.00  0.00     0.011 A
ATOM     14  H   UNL     1      32.782   9.012  -2.657  1.00  0.00     0.167 HD
ENDROOT
BRANCH   1  15
ATOM     15  C   UNL     1      35.081  10.283  -1.513  1.00  0.00     0.252 C
ATOM     16  N   UNL     1      36.133  10.628  -0.714  1.00  0.00    -0.365 N
ATOM     17  O   UNL     1      34.718   9.113  -1.588  1.00  0.00    -0.269 OA
ATOM     18  H   UNL     1      36.487  11.561  -0.569  1.00  0.00     0.159 HD
ATOM     19  H   UNL     1      36.583   9.877  -0.205  1.00  0.00     0.159 HD
ENDBRANCH   1  15
BRANCH   4  20
ATOM     20  N   UNL     1      32.570  14.275  -4.708  1.00  0.00    -0.358 N
ATOM     21  H   UNL     1      32.306  13.796  -5.569  1.00  0.00     0.162 HD
BRANCH  20  22
ATOM     22  C   UNL     1      31.409  15.075  -4.204  1.00  0.00     0.193 C
BRANCH  22  23
ATOM     23  C   UNL     1      31.110  16.335  -5.075  1.00  0.00     0.009 C
ATOM     24  C   UNL     1      30.359  16.188  -6.404  1.00  0.00     0.011 C
ATOM     25  C   UNL     1      29.653  16.786  -5.234  1.00  0.00     0.011 C
ATOM     26  G   UNL     1      32.307  17.294  -5.155  1.00  0.00     0.000 C
ENDBRANCH  22  23
BRANCH  22  27
ATOM     27  C   UNL     1      31.389  15.279  -2.660  1.00  0.00     0.409 C
ATOM     28  F   UNL     1      30.628  16.362  -2.341  1.00  0.00    -0.169 F
ATOM     29  F   UNL     1      32.600  15.466  -2.099  1.00  0.00    -0.169 F
ATOM     30  F   UNL     1      30.802  14.218  -2.048  1.00  0.00    -0.169 F
ENDBRANCH  22  27
ENDBRANCH  20  22
ENDBRANCH   4  20
BRANCH  10  31
ATOM     31  C   UNL     1      28.710   8.771  -6.182  1.00  0.00     0.093 A
ATOM     32  C   UNL     1      29.394   8.235  -7.266  1.00  0.00     0.035 A
ATOM     33  N   UNL     1      27.375   8.958  -6.266  1.00  0.00    -0.148 NA
ATOM     34  C   UNL     1      28.767   8.235  -8.512  1.00  0.00     0.051 A
ATOM     35  N   UNL     1      26.772   8.971  -7.489  1.00  0.00    -0.132 NA
ATOM     36  C   UNL     1      27.498   8.789  -8.613  1.00  0.00     0.151 A
BRANCH  36  37
ATOM     37  N   UNL     1      27.139   9.551  -9.733  1.00  0.00    -0.353 N
ATOM     38  C   UNL     1      28.088   9.846 -10.806  1.00  0.00     0.134 C
ATOM     39  C   UNL     1      26.155  10.588  -9.345  1.00  0.00     0.138 C
ATOM     40  C   UNL     1      27.493  10.829 -11.803  1.00  0.00     0.159 C
ATOM     41  C   UNL     1      26.862  11.939  -9.295  1.00  0.00     0.138 C
ATOM     42  S   UNL     1      27.158  12.394 -10.994  1.00  0.00     0.157 S
ATOM     43  O   UNL     1      25.924  12.926 -11.540  1.00  0.00    -0.228 OA
ATOM     44  O   UNL     1      28.378  13.178 -11.033  1.00  0.00    -0.228 OA
BRANCH  41  45
ATOM     45  C   UNL     1      26.094  13.012  -8.524  1.00  0.00     0.091 C
BRANCH  45  46
ATOM     46  S   UNL     1      27.282  13.870  -7.414  1.00  0.00    -0.160 SA
BRANCH  46  47
ATOM     47  C   UNL     1      26.493  13.678  -5.792  1.00  0.00     0.079 C
ATOM     48  G   UNL     1      27.243  14.315  -4.613  1.00  0.00     0.000 C
ENDBRANCH  46  47
ENDBRANCH  45  46
ENDBRANCH  41  45
ENDBRANCH  36  37
ENDBRANCH  10  31
TORSDOF 2
ENDMDL
MODEL 7
REMARK VINA RESULT:      -8.6      1.530      1.862
REMARK SMILES NC(=O)c1cnc2c3c1[nH]c1cc(ccc13)-c1ccc(nn1)N1CCS(=O)(=O)[C@@H](CSCC3(CC3)[C@H](C(F)(F)F)N2)C1
REMARK SMILES IDX 4 1 5 2 6 3 7 4 8 5 9 6 10 7 11 8 12 9 13 10 14 11 15 12
REMARK SMILES IDX 16 13 2 15 1 16 3 17 41 20 36 22 33 23 34 24 35 25 37 27
REMARK SMILES IDX 38 28 39 29 40 30 17 31 18 32 22 33 19 34 21 35 20 36 23 37
REMARK SMILES IDX 24 38 42 39 25 40 29 41 26 42 27 43 28 44 30 45 31 46 32 47
REMARK H PARENT 10 14 1 18 1 19 41 21
REMARK Flexibility Score:   57.900
ROOT
ATOM      1  C   UNL     1      33.763  12.313  -2.913  1.00  0.00     0.082 A
ATOM      2  C   UNL     1      33.895  13.695  -2.933  1.00  0.00     0.129 A
ATOM      3  N   UNL     1      33.002  14.566  -3.475  1.00  0.00    -0.238 NA
ATOM      4  C   UNL     1      31.876  14.092  -4.059  1.00  0.00     0.136 A
ATOM      5  C   UNL     1      31.601  12.710  -3.984  1.00  0.00     0.051 A
ATOM      6  C   UNL     1      32.569  11.848  -3.470  1.00  0.00     0.065 A
ATOM      7  N   UNL     1      32.112  10.560  -3.667  1.00  0.00    -0.354 N
ATOM      8  C   UNL     1      30.889  10.564  -4.294  1.00  0.00     0.047 A
ATOM      9  C   UNL     1      30.130   9.513  -4.837  1.00  0.00     0.037 A
ATOM     10  C   UNL     1      28.927   9.840  -5.493  1.00  0.00     0.004 A
ATOM     11  C   UNL     1      28.438  11.159  -5.385  1.00  0.00     0.011 A
ATOM     12  C   UNL     1      29.205  12.189  -4.842  1.00  0.00     0.012 A
ATOM     13  C   UNL     1      30.491  11.897  -4.371  1.00  0.00     0.011 A
ATOM     14  H   UNL     1      32.656   9.738  -3.429  1.00  0.00     0.167 HD
ENDROOT
BRANCH   1  15
ATOM     15  C   UNL     1      34.764  11.369  -2.374  1.00  0.00     0.252 C
ATOM     16  N   UNL     1      35.816  11.855  -1.653  1.00  0.00    -0.365 N
ATOM     17  O   UNL     1      34.650  10.162  -2.567  1.00  0.00    -0.269 OA
ATOM     18  H   UNL     1      35.979  12.823  -1.422  1.00  0.00     0.159 HD
ATOM     19  H   UNL     1      36.479  11.176  -1.300  1.00  0.00     0.159 HD
ENDBRANCH   1  15
BRANCH   4  20
ATOM     20  N   UNL     1      31.058  15.005  -4.716  1.00  0.00    -0.358 N
ATOM     21  H   UNL     1      30.188  15.056  -4.185  1.00  0.00     0.162 HD
BRANCH  20  22
ATOM     22  C   UNL     1      31.604  16.385  -4.914  1.00  0.00     0.193 C
BRANCH  22  23
ATOM     23  C   UNL     1      30.520  17.499  -4.770  1.00  0.00     0.009 C
ATOM     24  C   UNL     1      29.360  17.573  -5.770  1.00  0.00     0.011 C
ATOM     25  C   UNL     1      29.094  17.087  -4.384  1.00  0.00     0.011 C
ATOM     26  G   UNL     1      31.125  18.871  -4.436  1.00  0.00     0.000 C
ENDBRANCH  22  23
BRANCH  22  27
ATOM     27  C   UNL     1      32.584  16.523  -6.117  1.00  0.00     0.409 C
ATOM     28  F   UNL     1      33.774  17.031  -5.696  1.00  0.00    -0.169 F
ATOM     29  F   UNL     1      32.145  17.316  -7.115  1.00  0.00    -0.169 F
ATOM     30  F   UNL     1      32.866  15.303  -6.644  1.00  0.00    -0.169 F
ENDBRANCH  22  27
ENDBRANCH  20  22
ENDBRANCH   4  20
BRANCH  10  31
ATOM     31  C   UNL     1      28.297   8.959  -6.504  1.00  0.00     0.093 A
ATOM     32  C   UNL     1      29.076   8.299  -7.447  1.00  0.00     0.035 A
ATOM     33  N   UNL     1      27.002   9.224  -6.781  1.00  0.00    -0.148 NA
ATOM     34  C   UNL     1      28.619   8.244  -8.763  1.00  0.00     0.051 A
ATOM     35  N   UNL     1      26.566   9.182  -8.073  1.00  0.00    -0.132 NA
ATOM     36  C   UNL     1      27.418   8.868  -9.073  1.00  0.00     0.151 A
BRANCH  36  37
ATOM     37  N   UNL     1      27.266   9.564 -10.280  1.00  0.00    -0.353 N
ATOM     38  C   UNL     1      28.365   9.709 -11.235  1.00  0.00     0.134 C
ATOM     39  C   UNL     1      26.324  10.692 -10.099  1.00  0.00     0.138 C
ATOM     40  C   UNL     1      27.980  10.649 -12.367  1.00  0.00     0.159 C
ATOM     41  C   UNL     1      27.121  11.992 -10.047  1.00  0.00     0.138 C
ATOM     42  S   UNL     1      27.667  12.291 -11.718  1.00  0.00     0.157 S
ATOM     43  O   UNL     1      26.558  12.862 -12.459  1.00  0.00    -0.228 OA
ATOM     44  O   UNL     1      28.939  12.986 -11.648  1.00  0.00    -0.228 OA
BRANCH  41  45
ATOM     45  C   UNL     1      26.346  13.171  -9.460  1.00  0.00     0.091 C
BRANCH  45  46
ATOM     46  S   UNL     1      27.262  13.771  -7.983  1.00  0.00    -0.160 SA
BRANCH  46  47
ATOM     47  C   UNL     1      25.956  13.834  -6.727  1.00  0.00     0.079 C
ATOM     48  G   UNL     1      26.337  14.532  -5.412  1.00  0.00     0.000 C
ENDBRANCH  46  47
ENDBRANCH  45  46
ENDBRANCH  41  45
ENDBRANCH  36  37
ENDBRANCH  10  31
TORSDOF 2
ENDMDL
MODEL 8
REMARK VINA RESULT:      -8.6      2.234      3.198
REMARK SMILES NC(=O)c1cnc2c3c1[nH]c1cc(ccc13)-c1ccc(nn1)N1CCS(=O)(=O)[C@@H](CSCC3(CC3)[C@H](C(F)(F)F)N2)C1
REMARK SMILES IDX 4 1 5 2 6 3 7 4 8 5 9 6 10 7 11 8 12 9 13 10 14 11 15 12
REMARK SMILES IDX 16 13 2 15 1 16 3 17 41 20 36 22 33 23 34 24 35 25 37 27
REMARK SMILES IDX 38 28 39 29 40 30 17 31 18 32 22 33 19 34 21 35 20 36 23 37
REMARK SMILES IDX 24 38 42 39 25 40 29 41 26 42 27 43 28 44 30 45 31 46 32 47
REMARK H PARENT 10 14 1 18 1 19 41 21
REMARK Flexibility Score:   57.900
ROOT
ATOM      1  C   UNL     1      34.442  11.024  -2.127  1.00  0.00     0.082 A
ATOM      2  C   UNL     1      34.768  12.359  -2.324  1.00  0.00     0.129 A
ATOM      3  N   UNL     1      34.104  13.223  -3.137  1.00  0.00    -0.238 NA
ATOM      4  C   UNL     1      33.029  12.789  -3.837  1.00  0.00     0.136 A
ATOM      5  C   UNL     1      32.554  11.479  -3.613  1.00  0.00     0.051 A
ATOM      6  C   UNL     1      33.297  10.611  -2.815  1.00  0.00     0.065 A
ATOM      7  N   UNL     1      32.701   9.369  -2.900  1.00  0.00    -0.354 N
ATOM      8  C   UNL     1      31.605   9.407  -3.729  1.00  0.00     0.047 A
ATOM      9  C   UNL     1      30.801   8.374  -4.240  1.00  0.00     0.037 A
ATOM     10  C   UNL     1      29.775   8.722  -5.141  1.00  0.00     0.004 A
ATOM     11  C   UNL     1      29.465  10.088  -5.315  1.00  0.00     0.011 A
ATOM     12  C   UNL     1      30.274  11.100  -4.799  1.00  0.00     0.012 A
ATOM     13  C   UNL     1      31.416  10.745  -4.069  1.00  0.00     0.011 A
ATOM     14  H   UNL     1      33.079   8.542  -2.453  1.00  0.00     0.167 HD
ENDROOT
BRANCH   1  15
ATOM     15  C   UNL     1      35.202  10.075  -1.287  1.00  0.00     0.252 C
ATOM     16  N   UNL     1      36.281  10.527  -0.584  1.00  0.00    -0.365 N
ATOM     17  O   UNL     1      34.866   8.896  -1.217  1.00  0.00    -0.269 OA
ATOM     18  H   UNL     1      36.616  11.478  -0.558  1.00  0.00     0.159 HD
ATOM     19  H   UNL     1      36.774   9.846  -0.020  1.00  0.00     0.159 HD
ENDBRANCH   1  15
BRANCH   4  20
ATOM     20  N   UNL     1      32.461  13.666  -4.756  1.00  0.00    -0.358 N
ATOM     21  H   UNL     1      31.581  13.248  -5.056  1.00  0.00     0.162 HD
BRANCH  20  22
ATOM     22  C   UNL     1      32.216  15.068  -4.291  1.00  0.00     0.193 C
BRANCH  22  23
ATOM     23  C   UNL     1      30.989  15.190  -3.334  1.00  0.00     0.009 C
ATOM     24  C   UNL     1      31.201  15.215  -1.815  1.00  0.00     0.011 C
ATOM     25  C   UNL     1      30.823  16.476  -2.516  1.00  0.00     0.011 C
ATOM     26  G   UNL     1      29.810  14.306  -3.769  1.00  0.00     0.000 C
ENDBRANCH  22  23
BRANCH  22  27
ATOM     27  C   UNL     1      32.331  16.148  -5.409  1.00  0.00     0.409 C
ATOM     28  F   UNL     1      32.832  15.593  -6.545  1.00  0.00    -0.169 F
ATOM     29  F   UNL     1      33.117  17.198  -5.100  1.00  0.00    -0.169 F
ATOM     30  F   UNL     1      31.103  16.625  -5.737  1.00  0.00    -0.169 F
ENDBRANCH  22  27
ENDBRANCH  20  22
ENDBRANCH   4  20
BRANCH  10  31
ATOM     31  C   UNL     1      29.194   7.762  -6.109  1.00  0.00     0.093 A
ATOM     32  C   UNL     1      29.467   7.879  -7.466  1.00  0.00     0.035 A
ATOM     33  N   UNL     1      28.060   7.148  -5.710  1.00  0.00    -0.148 NA
ATOM     34  C   UNL     1      28.423   7.685  -8.371  1.00  0.00     0.051 A
ATOM     35  N   UNL     1      27.038   6.975  -6.597  1.00  0.00    -0.132 NA
ATOM     36  C   UNL     1      27.158   7.405  -7.871  1.00  0.00     0.151 A
BRANCH  36  37
ATOM     37  N   UNL     1      26.018   7.962  -8.465  1.00  0.00    -0.353 N
ATOM     38  C   UNL     1      24.801   7.181  -8.690  1.00  0.00     0.134 C
ATOM     39  C   UNL     1      26.414   8.973  -9.473  1.00  0.00     0.138 C
ATOM     40  C   UNL     1      23.788   7.976  -9.501  1.00  0.00     0.159 C
ATOM     41  C   UNL     1      26.217   8.379 -10.864  1.00  0.00     0.138 C
ATOM     42  S   UNL     1      24.454   8.335 -11.127  1.00  0.00     0.157 S
ATOM     43  O   UNL     1      24.021   9.668 -11.504  1.00  0.00    -0.228 OA
ATOM     44  O   UNL     1      24.165   7.198 -11.981  1.00  0.00    -0.228 OA
BRANCH  41  45
ATOM     45  C   UNL     1      26.959   9.131 -11.969  1.00  0.00     0.091 C
BRANCH  45  46
ATOM     46  S   UNL     1      27.936  10.474 -11.182  1.00  0.00    -0.160 SA
BRANCH  46  47
ATOM     47  C   UNL     1      27.006  11.954 -11.664  1.00  0.00     0.079 C
ATOM     48  G   UNL     1      27.580  12.736 -12.855  1.00  0.00     0.000 C
ENDBRANCH  46  47
ENDBRANCH  45  46
ENDBRANCH  41  45
ENDBRANCH  36  37
ENDBRANCH  10  31
TORSDOF 2
ENDMDL
MODEL 9
REMARK VINA RESULT:      -8.5      1.812      2.263
REMARK SMILES NC(=O)c1cnc2c3c1[nH]c1cc(ccc13)-c1ccc(nn1)N1CCS(=O)(=O)[C@@H](CSCC3(CC3)[C@H](C(F)(F)F)N2)C1
REMARK SMILES IDX 4 1 5 2 6 3 7 4 8 5 9 6 10 7 11 8 12 9 13 10 14 11 15 12
REMARK SMILES IDX 16 13 2 15 1 16 3 17 41 20 36 22 33 23 34 24 35 25 37 27
REMARK SMILES IDX 38 28 39 29 40 30 17 31 18 32 22 33 19 34 21 35 20 36 23 37
REMARK SMILES IDX 24 38 42 39 25 40 29 41 26 42 27 43 28 44 30 45 31 46 32 47
REMARK H PARENT 10 14 1 18 1 19 41 21
REMARK Flexibility Score:   57.900
ROOT
ATOM      1  C   UNL     1      33.484  12.277  -2.933  1.00  0.00     0.082 A
ATOM      2  C   UNL     1      33.431  13.648  -2.720  1.00  0.00     0.129 A
ATOM      3  N   UNL     1      32.389  14.458  -3.048  1.00  0.00    -0.238 NA
ATOM      4  C   UNL     1      31.292  13.929  -3.639  1.00  0.00     0.136 A
ATOM      5  C   UNL     1      31.208  12.528  -3.789  1.00  0.00     0.051 A
ATOM      6  C   UNL     1      32.320  11.742  -3.492  1.00  0.00     0.065 A
ATOM      7  N   UNL     1      32.023  10.452  -3.882  1.00  0.00    -0.354 N
ATOM      8  C   UNL     1      30.762  10.382  -4.425  1.00  0.00     0.047 A
ATOM      9  C   UNL     1      30.106   9.337  -5.097  1.00  0.00     0.037 A
ATOM     10  C   UNL     1      28.820   9.591  -5.614  1.00  0.00     0.004 A
ATOM     11  C   UNL     1      28.172  10.790  -5.250  1.00  0.00     0.011 A
ATOM     12  C   UNL     1      28.838  11.816  -4.582  1.00  0.00     0.012 A
ATOM     13  C   UNL     1      30.187  11.639  -4.246  1.00  0.00     0.011 A
ATOM     14  H   UNL     1      32.688   9.689  -3.823  1.00  0.00     0.167 HD
ENDROOT
BRANCH   1  15
ATOM     15  C   UNL     1      34.642  11.410  -2.626  1.00  0.00     0.252 C
ATOM     16  N   UNL     1      35.663  11.909  -1.871  1.00  0.00    -0.365 N
ATOM     17  O   UNL     1      34.684  10.256  -3.040  1.00  0.00    -0.269 OA
ATOM     18  H   UNL     1      35.706  12.832  -1.467  1.00  0.00     0.159 HD
ATOM     19  H   UNL     1      36.437  11.285  -1.682  1.00  0.00     0.159 HD
ENDBRANCH   1  15
BRANCH   4  20
ATOM     20  N   UNL     1      30.308  14.810  -4.078  1.00  0.00    -0.358 N
ATOM     21  H   UNL     1      30.253  15.557  -3.386  1.00  0.00     0.162 HD
BRANCH  20  22
ATOM     22  C   UNL     1      30.491  15.404  -5.440  1.00  0.00     0.193 C
BRANCH  22  23
ATOM     23  C   UNL     1      31.272  16.755  -5.420  1.00  0.00     0.009 C
ATOM     24  C   UNL     1      32.804  16.755  -5.491  1.00  0.00     0.011 C
ATOM     25  C   UNL     1      32.022  17.186  -6.686  1.00  0.00     0.011 C
ATOM     26  G   UNL     1      30.710  17.746  -4.389  1.00  0.00     0.000 C
ENDBRANCH  22  23
BRANCH  22  27
ATOM     27  C   UNL     1      29.221  15.352  -6.341  1.00  0.00     0.409 C
ATOM     28  F   UNL     1      29.008  14.082  -6.778  1.00  0.00    -0.169 F
ATOM     29  F   UNL     1      29.269  16.144  -7.431  1.00  0.00    -0.169 F
ATOM     30  F   UNL     1      28.117  15.690  -5.626  1.00  0.00    -0.169 F
ENDBRANCH  22  27
ENDBRANCH  20  22
ENDBRANCH   4  20
BRANCH  10  31
ATOM     31  C   UNL     1      28.230   8.806  -6.724  1.00  0.00     0.093 A
ATOM     32  C   UNL     1      29.031   8.337  -7.758  1.00  0.00     0.035 A
ATOM     33  N   UNL     1      26.913   9.007  -6.943  1.00  0.00    -0.148 NA
ATOM     34  C   UNL     1      28.546   8.422  -9.063  1.00  0.00     0.051 A
ATOM     35  N   UNL     1      26.449   9.103  -8.222  1.00  0.00    -0.132 NA
ATOM     36  C   UNL     1      27.295   8.990  -9.268  1.00  0.00     0.151 A
BRANCH  36  37
ATOM     37  N   UNL     1      27.063   9.825 -10.368  1.00  0.00    -0.353 N
ATOM     38  C   UNL     1      27.965   9.860 -11.520  1.00  0.00     0.134 C
ATOM     39  C   UNL     1      26.425  11.085  -9.922  1.00  0.00     0.138 C
ATOM     40  C   UNL     1      27.573  10.971 -12.483  1.00  0.00     0.159 C
ATOM     41  C   UNL     1      27.469  12.198  -9.952  1.00  0.00     0.138 C
ATOM     42  S   UNL     1      27.736  12.565 -11.677  1.00  0.00     0.157 S
ATOM     43  O   UNL     1      26.647  13.410 -12.132  1.00  0.00    -0.228 OA
ATOM     44  O   UNL     1      29.113  12.995 -11.827  1.00  0.00    -0.228 OA
BRANCH  41  45
ATOM     45  C   UNL     1      27.080  13.433  -9.140  1.00  0.00     0.091 C
BRANCH  45  46
ATOM     46  S   UNL     1      25.279  13.334  -8.786  1.00  0.00    -0.160 SA
BRANCH  46  47
ATOM     47  C   UNL     1      24.776  15.074  -8.886  1.00  0.00     0.079 C
ATOM     48  G   UNL     1      25.855  16.097  -8.502  1.00  0.00     0.000 C
ENDBRANCH  46  47
ENDBRANCH  45  46
ENDBRANCH  41  45
ENDBRANCH  36  37
ENDBRANCH  10  31
TORSDOF 2
ENDMDL
