MODEL 1
REMARK VINA RESULT:     -10.9      0.000      0.000
REMARK SMILES Fc1cc2cc(F)c1CN1CCOC[C@H]1CNC[C@H]1CNCC[C@@H]1n1cc(cn1)-c1cnc3cccc-2c3n1
REMARK SMILES IDX 1 1 2 2 3 3 4 4 5 5 6 6 7 7 8 8 9 9 10 10 11 11 15 12 12 13
REMARK SMILES IDX 14 14 13 15 16 16 17 17 18 19 37 21 36 22 38 23 35 24 39 25
REMARK SMILES IDX 33 26 34 27 30 28 32 29 31 30 27 31 26 32 28 33 25 34 29 35
REMARK SMILES IDX 24 36 23 37 19 38 22 39 20 40 21 41
REMARK H PARENT 17 18 21 42
REMARK Flexibility Score:   78.900
ROOT
ATOM      1  F   UNL     1      30.767  16.294  -1.691  1.00  0.00    -0.207 F
ATOM      2  C   UNL     1      31.518  15.637  -2.586  1.00  0.00     0.131 A
ATOM      3  C   UNL     1      32.219  14.509  -2.164  1.00  0.00     0.048 A
ATOM      4  C   UNL     1      33.010  13.778  -3.064  1.00  0.00    -0.010 A
ATOM      5  C   UNL     1      33.062  14.209  -4.395  1.00  0.00     0.048 A
ATOM      6  C   UNL     1      32.356  15.345  -4.799  1.00  0.00     0.131 A
ATOM      7  F   UNL     1      32.412  15.698  -6.091  1.00  0.00    -0.207 F
ATOM      8  C   UNL     1      31.582  16.085  -3.904  1.00  0.00     0.038 A
ENDROOT
BRANCH   8   9
ATOM      9  C   UNL     1      30.782  17.278  -4.354  1.00  0.00     0.126 C
BRANCH   9  10
ATOM     10  N   UNL     1      30.976  17.624  -5.780  1.00  0.00    -0.290 NA
ATOM     11  C   UNL     1      29.654  17.765  -6.446  1.00  0.00     0.113 C
ATOM     12  C   UNL     1      31.711  18.905  -5.996  1.00  0.00     0.096 C
ATOM     13  C   UNL     1      29.074  19.196  -6.477  1.00  0.00     0.175 C
ATOM     14  C   UNL     1      30.966  20.131  -5.394  1.00  0.00     0.180 C
ATOM     15  O   UNL     1      29.534  19.974  -5.372  1.00  0.00    -0.378 OA
BRANCH  12  16
ATOM     16  C   UNL     1      33.218  18.903  -5.622  1.00  0.00     0.102 C
BRANCH  16  17
ATOM     17  N   UNL     1      33.713  20.275  -5.408  1.00  0.00    -0.315 NA
ATOM     18  H   UNL     1      32.937  20.885  -5.161  1.00  0.00     0.122 HD
BRANCH  17  19
ATOM     19  C   UNL     1      34.458  20.813  -6.551  1.00  0.00     0.088 C
ATOM     20  G   UNL     1      35.315  22.068  -6.261  1.00  0.00     0.000 C
ENDBRANCH  17  19
ENDBRANCH  16  17
ENDBRANCH  12  16
ENDBRANCH   9  10
ENDBRANCH   8   9
BRANCH   4  21
ATOM     21  C   UNL     1      33.774  12.604  -2.603  1.00  0.00     0.010 A
ATOM     22  C   UNL     1      35.010  12.785  -1.959  1.00  0.00     0.011 A
ATOM     23  C   UNL     1      33.290  11.302  -2.827  1.00  0.00     0.097 A
ATOM     24  C   UNL     1      35.765  11.688  -1.560  1.00  0.00     0.003 A
ATOM     25  N   UNL     1      32.087  11.114  -3.412  1.00  0.00    -0.244 NA
ATOM     26  C   UNL     1      34.072  10.187  -2.435  1.00  0.00     0.089 A
ATOM     27  C   UNL     1      35.292  10.401  -1.808  1.00  0.00     0.030 A
ATOM     28  C   UNL     1      31.675   9.846  -3.629  1.00  0.00     0.092 A
ATOM     29  N   UNL     1      33.663   8.920  -2.658  1.00  0.00    -0.252 NA
ATOM     30  C   UNL     1      32.459   8.769  -3.263  1.00  0.00     0.140 A
BRANCH  28  31
ATOM     31  C   UNL     1      30.378   9.705  -4.247  1.00  0.00     0.040 A
ATOM     32  C   UNL     1      30.048   8.675  -5.105  1.00  0.00     0.119 A
ATOM     33  C   UNL     1      29.203  10.473  -4.160  1.00  0.00     0.145 A
ATOM     34  N   UNL     1      28.744   8.860  -5.455  1.00  0.00    -0.269 N
ATOM     35  N   UNL     1      28.206   9.967  -4.893  1.00  0.00    -0.181 NA
BRANCH  34  36
ATOM     36  C   UNL     1      27.921   8.075  -6.375  1.00  0.00     0.114 C
ATOM     37  C   UNL     1      27.733   8.835  -7.702  1.00  0.00     0.043 C
ATOM     38  C   UNL     1      28.398   6.608  -6.586  1.00  0.00     0.041 C
ATOM     39  C   UNL     1      28.582   8.235  -8.810  1.00  0.00     0.083 C
ATOM     40  C   UNL     1      27.792   6.088  -7.897  1.00  0.00     0.088 C
ATOM     41  N   UNL     1      28.254   6.836  -9.069  1.00  0.00    -0.316 NA
ATOM     42  H   UNL     1      27.563   6.763  -9.816  1.00  0.00     0.122 HD
ATOM     43  G   UNL     1      28.019   5.741  -5.362  1.00  0.00     0.000 C
ENDBRANCH  34  36
ENDBRANCH  28  31
ENDBRANCH   4  21
TORSDOF 0
ENDMDL
MODEL 2
REMARK VINA RESULT:     -10.8      1.091      1.587
REMARK SMILES Fc1cc2cc(F)c1CN1CCOC[C@H]1CNC[C@H]1CNCC[C@@H]1n1cc(cn1)-c1cnc3cccc-2c3n1
REMARK SMILES IDX 1 1 2 2 3 3 4 4 5 5 6 6 7 7 8 8 9 9 10 10 11 11 15 12 12 13
REMARK SMILES IDX 14 14 13 15 16 16 17 17 18 19 37 21 36 22 38 23 35 24 39 25
REMARK SMILES IDX 33 26 34 27 30 28 32 29 31 30 27 31 26 32 28 33 25 34 29 35
REMARK SMILES IDX 24 36 23 37 19 38 22 39 20 40 21 41
REMARK H PARENT 17 18 21 42
REMARK Flexibility Score:   78.900
ROOT
ATOM      1  F   UNL     1      30.833  16.369  -1.752  1.00  0.00    -0.207 F
ATOM      2  C   UNL     1      31.489  15.637  -2.663  1.00  0.00     0.131 A
ATOM      3  C   UNL     1      32.157  14.491  -2.238  1.00  0.00     0.048 A
ATOM      4  C   UNL     1      32.849  13.683  -3.153  1.00  0.00    -0.010 A
ATOM      5  C   UNL     1      32.837  14.057  -4.502  1.00  0.00     0.048 A
ATOM      6  C   UNL     1      32.166  15.213  -4.909  1.00  0.00     0.131 A
ATOM      7  F   UNL     1      32.156  15.511  -6.217  1.00  0.00    -0.207 F
ATOM      8  C   UNL     1      31.491  16.029  -4.000  1.00  0.00     0.038 A
ENDROOT
BRANCH   8   9
ATOM      9  C   UNL     1      30.726  17.245  -4.450  1.00  0.00     0.126 C
BRANCH   9  10
ATOM     10  N   UNL     1      30.836  17.517  -5.901  1.00  0.00    -0.290 NA
ATOM     11  C   UNL     1      29.486  17.478  -6.522  1.00  0.00     0.113 C
ATOM     12  C   UNL     1      31.425  18.850  -6.223  1.00  0.00     0.096 C
ATOM     13  C   UNL     1      28.757  18.836  -6.616  1.00  0.00     0.175 C
ATOM     14  C   UNL     1      30.575  20.029  -5.667  1.00  0.00     0.180 C
ATOM     15  O   UNL     1      29.169  19.727  -5.580  1.00  0.00    -0.378 OA
BRANCH  12  16
ATOM     16  C   UNL     1      32.935  19.028  -5.909  1.00  0.00     0.102 C
BRANCH  16  17
ATOM     17  N   UNL     1      33.635  19.686  -7.027  1.00  0.00    -0.315 NA
ATOM     18  H   UNL     1      34.255  19.020  -7.483  1.00  0.00     0.122 HD
BRANCH  17  19
ATOM     19  C   UNL     1      34.367  20.893  -6.629  1.00  0.00     0.088 C
ATOM     20  G   UNL     1      33.922  21.537  -5.296  1.00  0.00     0.000 C
ENDBRANCH  17  19
ENDBRANCH  16  17
ENDBRANCH  12  16
ENDBRANCH   9  10
ENDBRANCH   8   9
BRANCH   4  21
ATOM     21  C   UNL     1      33.579  12.488  -2.690  1.00  0.00     0.010 A
ATOM     22  C   UNL     1      34.817  12.635  -2.041  1.00  0.00     0.011 A
ATOM     23  C   UNL     1      33.062  11.199  -2.918  1.00  0.00     0.097 A
ATOM     24  C   UNL     1      35.541  11.518  -1.641  1.00  0.00     0.003 A
ATOM     25  N   UNL     1      31.857  11.045  -3.509  1.00  0.00    -0.244 NA
ATOM     26  C   UNL     1      33.812  10.063  -2.525  1.00  0.00     0.089 A
ATOM     27  C   UNL     1      35.034  10.244  -1.893  1.00  0.00     0.030 A
ATOM     28  C   UNL     1      31.411   9.789  -3.729  1.00  0.00     0.092 A
ATOM     29  N   UNL     1      33.370   8.809  -2.752  1.00  0.00    -0.252 NA
ATOM     30  C   UNL     1      32.165   8.691  -3.362  1.00  0.00     0.140 A
BRANCH  28  31
ATOM     31  C   UNL     1      30.114   9.684  -4.353  1.00  0.00     0.040 A
ATOM     32  C   UNL     1      29.696   8.579  -5.067  1.00  0.00     0.119 A
ATOM     33  C   UNL     1      29.016  10.562  -4.401  1.00  0.00     0.145 A
ATOM     34  N   UNL     1      28.420   8.833  -5.471  1.00  0.00    -0.269 N
ATOM     35  N   UNL     1      27.984  10.053  -5.081  1.00  0.00    -0.181 NA
BRANCH  34  36
ATOM     36  C   UNL     1      27.535   8.006  -6.292  1.00  0.00     0.114 C
ATOM     37  C   UNL     1      26.752   7.021  -5.403  1.00  0.00     0.043 C
ATOM     38  C   UNL     1      26.614   8.802  -7.262  1.00  0.00     0.041 C
ATOM     39  C   UNL     1      25.303   7.451  -5.241  1.00  0.00     0.083 C
ATOM     40  C   UNL     1      25.438   7.898  -7.659  1.00  0.00     0.088 C
ATOM     41  N   UNL     1      24.598   7.530  -6.517  1.00  0.00    -0.316 NA
ATOM     42  H   UNL     1      24.119   6.651  -6.715  1.00  0.00     0.122 HD
ATOM     43  G   UNL     1      27.426   9.303  -8.480  1.00  0.00     0.000 C
ENDBRANCH  34  36
ENDBRANCH  28  31
ENDBRANCH   4  21
TORSDOF 0
ENDMDL
MODEL 3
REMARK VINA RESULT:     -10.7      3.230      9.094
REMARK SMILES Fc1cc2cc(F)c1CN1CCOC[C@H]1CNC[C@H]1CNCC[C@@H]1n1cc(cn1)-c1cnc3cccc-2c3n1
REMARK SMILES IDX 1 1 2 2 3 3 4 4 5 5 6 6 7 7 8 8 9 9 10 10 11 11 15 12 12 13
REMARK SMILES IDX 14 14 13 15 16 16 17 17 18 19 37 21 36 22 38 23 35 24 39 25
REMARK SMILES IDX 33 26 34 27 30 28 32 29 31 30 27 31 26 32 28 33 25 34 29 35
REMARK SMILES IDX 24 36 23 37 19 38 22 39 20 40 21 41
REMARK H PARENT 17 18 21 42
REMARK Flexibility Score:   78.900
ROOT
ATOM      1  F   UNL     1      28.617  11.387  -5.516  1.00  0.00    -0.207 F
ATOM      2  C   UNL     1      29.399  10.365  -5.144  1.00  0.00     0.131 A
ATOM      3  C   UNL     1      30.536  10.640  -4.387  1.00  0.00     0.048 A
ATOM      4  C   UNL     1      31.382   9.604  -3.961  1.00  0.00    -0.010 A
ATOM      5  C   UNL     1      31.042   8.292  -4.309  1.00  0.00     0.048 A
ATOM      6  C   UNL     1      29.901   8.035  -5.073  1.00  0.00     0.131 A
ATOM      7  F   UNL     1      29.599   6.758  -5.352  1.00  0.00    -0.207 F
ATOM      8  C   UNL     1      29.066   9.064  -5.513  1.00  0.00     0.038 A
ENDROOT
BRANCH   8   9
ATOM      9  C   UNL     1      27.809   8.778  -6.292  1.00  0.00     0.126 C
BRANCH   9  10
ATOM     10  N   UNL     1      27.992   8.825  -7.760  1.00  0.00    -0.290 NA
ATOM     11  C   UNL     1      28.164   7.446  -8.287  1.00  0.00     0.113 C
ATOM     12  C   UNL     1      26.841   9.431  -8.493  1.00  0.00     0.096 C
ATOM     13  C   UNL     1      26.871   6.748  -8.761  1.00  0.00     0.175 C
ATOM     14  C   UNL     1      25.518   8.639  -8.288  1.00  0.00     0.180 C
ATOM     15  O   UNL     1      25.725   7.231  -8.060  1.00  0.00    -0.378 OA
BRANCH  12  16
ATOM     16  C   UNL     1      26.636  10.959  -8.306  1.00  0.00     0.102 C
BRANCH  16  17
ATOM     17  N   UNL     1      27.420  11.724  -9.292  1.00  0.00    -0.315 NA
ATOM     18  H   UNL     1      27.146  12.704  -9.261  1.00  0.00     0.122 HD
BRANCH  17  19
ATOM     19  C   UNL     1      27.321  11.196 -10.656  1.00  0.00     0.088 C
ATOM     20  G   UNL     1      28.666  10.931 -11.371  1.00  0.00     0.000 C
ENDBRANCH  17  19
ENDBRANCH  16  17
ENDBRANCH  12  16
ENDBRANCH   9  10
ENDBRANCH   8   9
BRANCH   4  21
ATOM     21  C   UNL     1      32.600   9.906  -3.186  1.00  0.00     0.010 A
ATOM     22  C   UNL     1      33.231   8.886  -2.454  1.00  0.00     0.011 A
ATOM     23  C   UNL     1      33.121  11.212  -3.151  1.00  0.00     0.097 A
ATOM     24  C   UNL     1      34.352   9.163  -1.681  1.00  0.00     0.003 A
ATOM     25  N   UNL     1      32.546  12.194  -3.879  1.00  0.00    -0.244 NA
ATOM     26  C   UNL     1      34.254  11.493  -2.347  1.00  0.00     0.089 A
ATOM     27  C   UNL     1      34.848  10.464  -1.630  1.00  0.00     0.030 A
ATOM     28  C   UNL     1      33.066  13.438  -3.795  1.00  0.00     0.092 A
ATOM     29  N   UNL     1      34.768  12.738  -2.257  1.00  0.00    -0.252 NA
ATOM     30  C   UNL     1      34.156  13.702  -2.988  1.00  0.00     0.140 A
BRANCH  28  31
ATOM     31  C   UNL     1      32.419  14.444  -4.602  1.00  0.00     0.040 A
ATOM     32  C   UNL     1      32.868  15.746  -4.708  1.00  0.00     0.119 A
ATOM     33  C   UNL     1      31.284  14.402  -5.432  1.00  0.00     0.145 A
ATOM     34  N   UNL     1      32.028  16.381  -5.572  1.00  0.00    -0.269 N
ATOM     35  N   UNL     1      31.038  15.576  -6.023  1.00  0.00    -0.181 NA
BRANCH  34  36
ATOM     36  C   UNL     1      32.035  17.781  -5.997  1.00  0.00     0.114 C
ATOM     37  C   UNL     1      30.840  18.531  -5.376  1.00  0.00     0.043 C
ATOM     38  C   UNL     1      33.387  18.520  -5.777  1.00  0.00     0.041 C
ATOM     39  C   UNL     1      31.284  19.438  -4.240  1.00  0.00     0.083 C
ATOM     40  C   UNL     1      33.115  20.032  -5.776  1.00  0.00     0.088 C
ATOM     41  N   UNL     1      32.244  20.448  -4.675  1.00  0.00    -0.316 NA
ATOM     42  H   UNL     1      31.763  21.313  -4.927  1.00  0.00     0.122 HD
ATOM     43  G   UNL     1      34.411  18.095  -6.855  1.00  0.00     0.000 C
ENDBRANCH  34  36
ENDBRANCH  28  31
ENDBRANCH   4  21
TORSDOF 0
ENDMDL
MODEL 4
REMARK VINA RESULT:     -10.7      3.325      9.121
REMARK SMILES Fc1cc2cc(F)c1CN1CCOC[C@H]1CNC[C@H]1CNCC[C@@H]1n1cc(cn1)-c1cnc3cccc-2c3n1
REMARK SMILES IDX 1 1 2 2 3 3 4 4 5 5 6 6 7 7 8 8 9 9 10 10 11 11 15 12 12 13
REMARK SMILES IDX 14 14 13 15 16 16 17 17 18 19 37 21 36 22 38 23 35 24 39 25
REMARK SMILES IDX 33 26 34 27 30 28 32 29 31 30 27 31 26 32 28 33 25 34 29 35
REMARK SMILES IDX 24 36 23 37 19 38 22 39 20 40 21 41
REMARK H PARENT 17 18 21 42
REMARK Flexibility Score:   78.900
ROOT
ATOM      1  F   UNL     1      29.841   6.458  -4.909  1.00  0.00    -0.207 F
ATOM      2  C   UNL     1      30.115   7.757  -4.720  1.00  0.00     0.131 A
ATOM      3  C   UNL     1      31.269   8.096  -4.018  1.00  0.00     0.048 A
ATOM      4  C   UNL     1      31.608   9.440  -3.803  1.00  0.00    -0.010 A
ATOM      5  C   UNL     1      30.761  10.425  -4.325  1.00  0.00     0.048 A
ATOM      6  C   UNL     1      29.605  10.066  -5.023  1.00  0.00     0.131 A
ATOM      7  F   UNL     1      28.843  11.045  -5.532  1.00  0.00    -0.207 F
ATOM      8  C   UNL     1      29.254   8.730  -5.224  1.00  0.00     0.038 A
ENDROOT
BRANCH   8   9
ATOM      9  C   UNL     1      28.035   8.347  -6.020  1.00  0.00     0.126 C
BRANCH   9  10
ATOM     10  N   UNL     1      28.233   8.413  -7.485  1.00  0.00    -0.290 NA
ATOM     11  C   UNL     1      28.853   7.149  -7.965  1.00  0.00     0.113 C
ATOM     12  C   UNL     1      26.970   8.598  -8.258  1.00  0.00     0.096 C
ATOM     13  C   UNL     1      27.865   6.061  -8.438  1.00  0.00     0.175 C
ATOM     14  C   UNL     1      25.965   7.429  -8.052  1.00  0.00     0.180 C
ATOM     15  O   UNL     1      26.606   6.169  -7.774  1.00  0.00    -0.378 OA
BRANCH  12  16
ATOM     16  C   UNL     1      26.281   9.984  -8.125  1.00  0.00     0.102 C
BRANCH  16  17
ATOM     17  N   UNL     1      27.250  11.079  -8.312  1.00  0.00    -0.315 NA
ATOM     18  H   UNL     1      27.983  11.012  -7.608  1.00  0.00     0.122 HD
BRANCH  17  19
ATOM     19  C   UNL     1      26.637  12.410  -8.304  1.00  0.00     0.088 C
ATOM     20  G   UNL     1      27.122  13.364  -7.187  1.00  0.00     0.000 C
ENDBRANCH  17  19
ENDBRANCH  16  17
ENDBRANCH  12  16
ENDBRANCH   9  10
ENDBRANCH   8   9
BRANCH   4  21
ATOM     21  C   UNL     1      32.815   9.792  -3.032  1.00  0.00     0.010 A
ATOM     22  C   UNL     1      33.473   8.804  -2.279  1.00  0.00     0.011 A
ATOM     23  C   UNL     1      33.299  11.113  -3.021  1.00  0.00     0.097 A
ATOM     24  C   UNL     1      34.584   9.129  -1.509  1.00  0.00     0.003 A
ATOM     25  N   UNL     1      32.697  12.064  -3.769  1.00  0.00    -0.244 NA
ATOM     26  C   UNL     1      34.421  11.442  -2.220  1.00  0.00     0.089 A
ATOM     27  C   UNL     1      35.043  10.444  -1.483  1.00  0.00     0.030 A
ATOM     28  C   UNL     1      33.181  13.324  -3.707  1.00  0.00     0.092 A
ATOM     29  N   UNL     1      34.899  12.702  -2.153  1.00  0.00    -0.252 NA
ATOM     30  C   UNL     1      34.261  13.634  -2.903  1.00  0.00     0.140 A
BRANCH  28  31
ATOM     31  C   UNL     1      32.507  14.296  -4.534  1.00  0.00     0.040 A
ATOM     32  C   UNL     1      32.906  15.613  -4.646  1.00  0.00     0.119 A
ATOM     33  C   UNL     1      31.388  14.200  -5.382  1.00  0.00     0.145 A
ATOM     34  N   UNL     1      32.055  16.205  -5.531  1.00  0.00    -0.269 N
ATOM     35  N   UNL     1      31.106  15.357  -5.988  1.00  0.00    -0.181 NA
BRANCH  34  36
ATOM     36  C   UNL     1      32.014  17.601  -5.969  1.00  0.00     0.114 C
ATOM     37  C   UNL     1      30.800  18.318  -5.345  1.00  0.00     0.043 C
ATOM     38  C   UNL     1      33.343  18.386  -5.769  1.00  0.00     0.041 C
ATOM     39  C   UNL     1      31.224  19.251  -4.223  1.00  0.00     0.083 C
ATOM     40  C   UNL     1      33.021  19.888  -5.781  1.00  0.00     0.088 C
ATOM     41  N   UNL     1      32.147  20.287  -4.676  1.00  0.00    -0.316 NA
ATOM     42  H   UNL     1      31.636  21.132  -4.933  1.00  0.00     0.122 HD
ATOM     43  G   UNL     1      34.370  17.982  -6.852  1.00  0.00     0.000 C
ENDBRANCH  34  36
ENDBRANCH  28  31
ENDBRANCH   4  21
TORSDOF 0
ENDMDL
MODEL 5
REMARK VINA RESULT:     -10.6      3.241      9.252
REMARK SMILES Fc1cc2cc(F)c1CN1CCOC[C@H]1CNC[C@H]1CNCC[C@@H]1n1cc(cn1)-c1cnc3cccc-2c3n1
REMARK SMILES IDX 1 1 2 2 3 3 4 4 5 5 6 6 7 7 8 8 9 9 10 10 11 11 15 12 12 13
REMARK SMILES IDX 14 14 13 15 16 16 17 17 18 19 37 21 36 22 38 23 35 24 39 25
REMARK SMILES IDX 33 26 34 27 30 28 32 29 31 30 27 31 26 32 28 33 25 34 29 35
REMARK SMILES IDX 24 36 23 37 19 38 22 39 20 40 21 41
REMARK H PARENT 17 18 21 42
REMARK Flexibility Score:   78.900
ROOT
ATOM      1  F   UNL     1      30.207   6.485  -4.643  1.00  0.00    -0.207 F
ATOM      2  C   UNL     1      30.457   7.795  -4.503  1.00  0.00     0.131 A
ATOM      3  C   UNL     1      31.597   8.182  -3.803  1.00  0.00     0.048 A
ATOM      4  C   UNL     1      31.911   9.540  -3.639  1.00  0.00    -0.010 A
ATOM      5  C   UNL     1      31.052  10.487  -4.207  1.00  0.00     0.048 A
ATOM      6  C   UNL     1      29.911  10.081  -4.902  1.00  0.00     0.131 A
ATOM      7  F   UNL     1      29.137  11.026  -5.457  1.00  0.00    -0.207 F
ATOM      8  C   UNL     1      29.585   8.732  -5.053  1.00  0.00     0.038 A
ENDROOT
BRANCH   8   9
ATOM      9  C   UNL     1      28.382   8.297  -5.846  1.00  0.00     0.126 C
BRANCH   9  10
ATOM     10  N   UNL     1      28.566   8.390  -7.312  1.00  0.00    -0.290 NA
ATOM     11  C   UNL     1      28.947   7.059  -7.854  1.00  0.00     0.113 C
ATOM     12  C   UNL     1      27.343   8.825  -8.048  1.00  0.00     0.096 C
ATOM     13  C   UNL     1      27.777   6.181  -8.348  1.00  0.00     0.175 C
ATOM     14  C   UNL     1      26.152   7.841  -7.865  1.00  0.00     0.180 C
ATOM     15  O   UNL     1      26.567   6.477  -7.651  1.00  0.00    -0.378 OA
BRANCH  12  16
ATOM     16  C   UNL     1      26.909  10.302  -7.845  1.00  0.00     0.102 C
BRANCH  16  17
ATOM     17  N   UNL     1      27.121  11.091  -9.072  1.00  0.00    -0.315 NA
ATOM     18  H   UNL     1      26.273  11.607  -9.298  1.00  0.00     0.122 HD
BRANCH  17  19
ATOM     19  C   UNL     1      27.564  10.287 -10.215  1.00  0.00     0.088 C
ATOM     20  G   UNL     1      26.647  10.329 -11.460  1.00  0.00     0.000 C
ENDBRANCH  17  19
ENDBRANCH  16  17
ENDBRANCH  12  16
ENDBRANCH   9  10
ENDBRANCH   8   9
BRANCH   4  21
ATOM     21  C   UNL     1      33.104   9.942  -2.870  1.00  0.00     0.010 A
ATOM     22  C   UNL     1      33.785   8.991  -2.091  1.00  0.00     0.011 A
ATOM     23  C   UNL     1      33.550  11.276  -2.887  1.00  0.00     0.097 A
ATOM     24  C   UNL     1      34.882   9.364  -1.323  1.00  0.00     0.003 A
ATOM     25  N   UNL     1      32.927  12.192  -3.659  1.00  0.00    -0.244 NA
ATOM     26  C   UNL     1      34.658  11.655  -2.088  1.00  0.00     0.089 A
ATOM     27  C   UNL     1      35.303  10.692  -1.325  1.00  0.00     0.030 A
ATOM     28  C   UNL     1      33.375  13.467  -3.625  1.00  0.00     0.092 A
ATOM     29  N   UNL     1      35.101  12.929  -2.049  1.00  0.00    -0.252 NA
ATOM     30  C   UNL     1      34.441  13.825  -2.823  1.00  0.00     0.140 A
BRANCH  28  31
ATOM     31  C   UNL     1      32.679  14.400  -4.478  1.00  0.00     0.040 A
ATOM     32  C   UNL     1      32.998  15.740  -4.566  1.00  0.00     0.119 A
ATOM     33  C   UNL     1      31.607  14.240  -5.375  1.00  0.00     0.145 A
ATOM     34  N   UNL     1      32.152  16.284  -5.486  1.00  0.00    -0.269 N
ATOM     35  N   UNL     1      31.280  15.381  -5.989  1.00  0.00    -0.181 NA
BRANCH  34  36
ATOM     36  C   UNL     1      32.042  17.677  -5.920  1.00  0.00     0.114 C
ATOM     37  C   UNL     1      30.787  18.328  -5.305  1.00  0.00     0.043 C
ATOM     38  C   UNL     1      33.327  18.529  -5.704  1.00  0.00     0.041 C
ATOM     39  C   UNL     1      31.152  19.277  -4.175  1.00  0.00     0.083 C
ATOM     40  C   UNL     1      32.928  20.013  -5.714  1.00  0.00     0.088 C
ATOM     41  N   UNL     1      32.023  20.362  -4.617  1.00  0.00    -0.316 NA
ATOM     42  H   UNL     1      31.471  21.180  -4.875  1.00  0.00     0.122 HD
ATOM     43  G   UNL     1      34.384  18.184  -6.779  1.00  0.00     0.000 C
ENDBRANCH  34  36
ENDBRANCH  28  31
ENDBRANCH   4  21
TORSDOF 0
ENDMDL
MODEL 6
REMARK VINA RESULT:     -10.6      1.304      2.114
REMARK SMILES Fc1cc2cc(F)c1CN1CCOC[C@H]1CNC[C@H]1CNCC[C@@H]1n1cc(cn1)-c1cnc3cccc-2c3n1
REMARK SMILES IDX 1 1 2 2 3 3 4 4 5 5 6 6 7 7 8 8 9 9 10 10 11 11 15 12 12 13
REMARK SMILES IDX 14 14 13 15 16 16 17 17 18 19 37 21 36 22 38 23 35 24 39 25
REMARK SMILES IDX 33 26 34 27 30 28 32 29 31 30 27 31 26 32 28 33 25 34 29 35
REMARK SMILES IDX 24 36 23 37 19 38 22 39 20 40 21 41
REMARK H PARENT 17 18 21 42
REMARK Flexibility Score:   78.900
ROOT
ATOM      1  F   UNL     1      32.746  15.749  -6.176  1.00  0.00    -0.207 F
ATOM      2  C   UNL     1      32.506  15.339  -4.923  1.00  0.00     0.131 A
ATOM      3  C   UNL     1      33.203  14.233  -4.442  1.00  0.00     0.048 A
ATOM      4  C   UNL     1      32.999  13.770  -3.133  1.00  0.00    -0.010 A
ATOM      5  C   UNL     1      32.086  14.459  -2.327  1.00  0.00     0.048 A
ATOM      6  C   UNL     1      31.393  15.564  -2.827  1.00  0.00     0.131 A
ATOM      7  F   UNL     1      30.554  16.211  -2.005  1.00  0.00    -0.207 F
ATOM      8  C   UNL     1      31.580  16.017  -4.134  1.00  0.00     0.038 A
ENDROOT
BRANCH   8   9
ATOM      9  C   UNL     1      30.870  17.239  -4.653  1.00  0.00     0.126 C
BRANCH   9  10
ATOM     10  N   UNL     1      30.105  17.002  -5.898  1.00  0.00    -0.290 NA
ATOM     11  C   UNL     1      29.368  15.715  -5.796  1.00  0.00     0.113 C
ATOM     12  C   UNL     1      29.095  18.059  -6.196  1.00  0.00     0.096 C
ATOM     13  C   UNL     1      27.920  15.817  -5.268  1.00  0.00     0.175 C
ATOM     14  C   UNL     1      28.010  18.181  -5.088  1.00  0.00     0.180 C
ATOM     15  O   UNL     1      27.753  16.939  -4.403  1.00  0.00    -0.378 OA
BRANCH  12  16
ATOM     16  C   UNL     1      29.655  19.447  -6.611  1.00  0.00     0.102 C
BRANCH  16  17
ATOM     17  N   UNL     1      29.599  20.400  -5.487  1.00  0.00    -0.315 NA
ATOM     18  H   UNL     1      28.707  20.891  -5.500  1.00  0.00     0.122 HD
BRANCH  17  19
ATOM     19  C   UNL     1      30.718  21.346  -5.466  1.00  0.00     0.088 C
ATOM     20  G   UNL     1      32.013  20.837  -4.792  1.00  0.00     0.000 C
ENDBRANCH  17  19
ENDBRANCH  16  17
ENDBRANCH  12  16
ENDBRANCH   9  10
ENDBRANCH   8   9
BRANCH   4  21
ATOM     21  C   UNL     1      33.718  12.580  -2.642  1.00  0.00     0.010 A
ATOM     22  C   UNL     1      34.947  12.732  -1.978  1.00  0.00     0.011 A
ATOM     23  C   UNL     1      33.198  11.290  -2.855  1.00  0.00     0.097 A
ATOM     24  C   UNL     1      35.660  11.618  -1.551  1.00  0.00     0.003 A
ATOM     25  N   UNL     1      32.000  11.131  -3.459  1.00  0.00    -0.244 NA
ATOM     26  C   UNL     1      33.937  10.157  -2.433  1.00  0.00     0.089 A
ATOM     27  C   UNL     1      35.152  10.343  -1.788  1.00  0.00     0.030 A
ATOM     28  C   UNL     1      31.552   9.873  -3.665  1.00  0.00     0.092 A
ATOM     29  N   UNL     1      33.493   8.901  -2.646  1.00  0.00    -0.252 NA
ATOM     30  C   UNL     1      32.295   8.778  -3.270  1.00  0.00     0.140 A
BRANCH  28  31
ATOM     31  C   UNL     1      30.262   9.763  -4.305  1.00  0.00     0.040 A
ATOM     32  C   UNL     1      29.934   8.763  -5.197  1.00  0.00     0.119 A
ATOM     33  C   UNL     1      29.093  10.540  -4.210  1.00  0.00     0.145 A
ATOM     34  N   UNL     1      28.636   8.971  -5.559  1.00  0.00    -0.269 N
ATOM     35  N   UNL     1      28.102  10.066  -4.971  1.00  0.00    -0.181 NA
BRANCH  34  36
ATOM     36  C   UNL     1      27.818   8.221  -6.512  1.00  0.00     0.114 C
ATOM     37  C   UNL     1      27.851   8.904  -7.893  1.00  0.00     0.043 C
ATOM     38  C   UNL     1      28.137   6.699  -6.587  1.00  0.00     0.041 C
ATOM     39  C   UNL     1      28.726   8.137  -8.871  1.00  0.00     0.083 C
ATOM     40  C   UNL     1      27.602   6.161  -7.923  1.00  0.00     0.088 C
ATOM     41  N   UNL     1      28.261   6.769  -9.081  1.00  0.00    -0.316 NA
ATOM     42  H   UNL     1      27.641   6.723  -9.891  1.00  0.00     0.122 HD
ATOM     43  G   UNL     1      27.542   5.966  -5.363  1.00  0.00     0.000 C
ENDBRANCH  34  36
ENDBRANCH  28  31
ENDBRANCH   4  21
TORSDOF 0
ENDMDL
MODEL 7
REMARK VINA RESULT:     -10.5      2.243      3.694
REMARK SMILES Fc1cc2cc(F)c1CN1CCOC[C@H]1CNC[C@H]1CNCC[C@@H]1n1cc(cn1)-c1cnc3cccc-2c3n1
REMARK SMILES IDX 1 1 2 2 3 3 4 4 5 5 6 6 7 7 8 8 9 9 10 10 11 11 15 12 12 13
REMARK SMILES IDX 14 14 13 15 16 16 17 17 18 19 37 21 36 22 38 23 35 24 39 25
REMARK SMILES IDX 33 26 34 27 30 28 32 29 31 30 27 31 26 32 28 33 25 34 29 35
REMARK SMILES IDX 24 36 23 37 19 38 22 39 20 40 21 41
REMARK H PARENT 17 18 21 42
REMARK Flexibility Score:   78.900
ROOT
ATOM      1  F   UNL     1      31.038  16.401  -1.895  1.00  0.00    -0.207 F
ATOM      2  C   UNL     1      31.643  15.667  -2.840  1.00  0.00     0.131 A
ATOM      3  C   UNL     1      31.886  14.320  -2.580  1.00  0.00     0.048 A
ATOM      4  C   UNL     1      32.505  13.505  -3.540  1.00  0.00    -0.010 A
ATOM      5  C   UNL     1      32.858  14.083  -4.765  1.00  0.00     0.048 A
ATOM      6  C   UNL     1      32.611  15.437  -5.006  1.00  0.00     0.131 A
ATOM      7  F   UNL     1      32.938  15.936  -6.207  1.00  0.00    -0.207 F
ATOM      8  C   UNL     1      32.011  16.255  -4.048  1.00  0.00     0.038 A
ENDROOT
BRANCH   8   9
ATOM      9  C   UNL     1      31.700  17.701  -4.331  1.00  0.00     0.126 C
BRANCH   9  10
ATOM     10  N   UNL     1      31.370  17.975  -5.747  1.00  0.00    -0.290 NA
ATOM     11  C   UNL     1      29.984  17.523  -6.035  1.00  0.00     0.113 C
ATOM     12  C   UNL     1      31.441  19.420  -6.115  1.00  0.00     0.096 C
ATOM     13  C   UNL     1      28.886  18.596  -5.873  1.00  0.00     0.175 C
ATOM     14  C   UNL     1      30.442  20.294  -5.305  1.00  0.00     0.180 C
ATOM     15  O   UNL     1      29.253  19.582  -4.909  1.00  0.00    -0.378 OA
BRANCH  12  16
ATOM     16  C   UNL     1      32.860  20.049  -6.154  1.00  0.00     0.102 C
BRANCH  16  17
ATOM     17  N   UNL     1      33.132  20.822  -4.928  1.00  0.00    -0.315 NA
ATOM     18  H   UNL     1      32.253  21.117  -4.507  1.00  0.00     0.122 HD
BRANCH  17  19
ATOM     19  C   UNL     1      34.019  21.969  -5.144  1.00  0.00     0.088 C
ATOM     20  G   UNL     1      35.011  21.836  -6.323  1.00  0.00     0.000 C
ENDBRANCH  17  19
ENDBRANCH  16  17
ENDBRANCH  12  16
ENDBRANCH   9  10
ENDBRANCH   8   9
BRANCH   4  21
ATOM     21  C   UNL     1      32.786  12.088  -3.246  1.00  0.00     0.010 A
ATOM     22  C   UNL     1      33.946  11.741  -2.531  1.00  0.00     0.011 A
ATOM     23  C   UNL     1      31.920  11.076  -3.699  1.00  0.00     0.097 A
ATOM     24  C   UNL     1      34.251  10.407  -2.287  1.00  0.00     0.003 A
ATOM     25  N   UNL     1      30.784  11.398  -4.355  1.00  0.00    -0.244 NA
ATOM     26  C   UNL     1      32.245   9.717  -3.462  1.00  0.00     0.089 A
ATOM     27  C   UNL     1      33.401   9.409  -2.760  1.00  0.00     0.030 A
ATOM     28  C   UNL     1      29.994  10.392  -4.793  1.00  0.00     0.092 A
ATOM     29  N   UNL     1      31.460   8.713  -3.906  1.00  0.00    -0.252 NA
ATOM     30  C   UNL     1      30.337   9.071  -4.576  1.00  0.00     0.140 A
BRANCH  28  31
ATOM     31  C   UNL     1      28.789  10.793  -5.478  1.00  0.00     0.040 A
ATOM     32  C   UNL     1      28.393  12.108  -5.623  1.00  0.00     0.119 A
ATOM     33  C   UNL     1      27.787  10.056  -6.135  1.00  0.00     0.145 A
ATOM     34  N   UNL     1      27.238  12.092  -6.345  1.00  0.00    -0.269 N
ATOM     35  N   UNL     1      26.840  10.838  -6.662  1.00  0.00    -0.181 NA
BRANCH  34  36
ATOM     36  C   UNL     1      26.387  13.215  -6.739  1.00  0.00     0.114 C
ATOM     37  C   UNL     1      25.714  13.833  -5.498  1.00  0.00     0.043 C
ATOM     38  C   UNL     1      27.086  14.278  -7.635  1.00  0.00     0.041 C
ATOM     39  C   UNL     1      26.356  15.158  -5.121  1.00  0.00     0.083 C
ATOM     40  C   UNL     1      26.284  15.586  -7.545  1.00  0.00     0.088 C
ATOM     41  N   UNL     1      26.268  16.146  -6.192  1.00  0.00    -0.316 NA
ATOM     42  H   UNL     1      25.439  16.729  -6.073  1.00  0.00     0.122 HD
ATOM     43  G   UNL     1      27.218  13.753  -9.084  1.00  0.00     0.000 C
ENDBRANCH  34  36
ENDBRANCH  28  31
ENDBRANCH   4  21
TORSDOF 0
ENDMDL
MODEL 8
REMARK VINA RESULT:     -10.5      0.542      1.394
REMARK SMILES Fc1cc2cc(F)c1CN1CCOC[C@H]1CNC[C@H]1CNCC[C@@H]1n1cc(cn1)-c1cnc3cccc-2c3n1
REMARK SMILES IDX 1 1 2 2 3 3 4 4 5 5 6 6 7 7 8 8 9 9 10 10 11 11 15 12 12 13
REMARK SMILES IDX 14 14 13 15 16 16 17 17 18 19 37 21 36 22 38 23 35 24 39 25
REMARK SMILES IDX 33 26 34 27 30 28 32 29 31 30 27 31 26 32 28 33 25 34 29 35
REMARK SMILES IDX 24 36 23 37 19 38 22 39 20 40 21 41
REMARK H PARENT 17 18 21 42
REMARK Flexibility Score:   78.900
ROOT
ATOM      1  F   UNL     1      32.310  15.569  -6.103  1.00  0.00    -0.207 F
ATOM      2  C   UNL     1      32.269  15.248  -4.803  1.00  0.00     0.131 A
ATOM      3  C   UNL     1      33.015  14.155  -4.365  1.00  0.00     0.048 A
ATOM      4  C   UNL     1      33.017  13.785  -3.012  1.00  0.00    -0.010 A
ATOM      5  C   UNL     1      32.260  14.552  -2.118  1.00  0.00     0.048 A
ATOM      6  C   UNL     1      31.515  15.641  -2.575  1.00  0.00     0.131 A
ATOM      7  F   UNL     1      30.833  16.364  -1.675  1.00  0.00    -0.207 F
ATOM      8  C   UNL     1      31.496  16.003  -3.923  1.00  0.00     0.038 A
ENDROOT
BRANCH   8   9
ATOM      9  C   UNL     1      30.733  17.209  -4.404  1.00  0.00     0.126 C
BRANCH   9  10
ATOM     10  N   UNL     1      30.771  17.394  -5.872  1.00  0.00    -0.290 NA
ATOM     11  C   UNL     1      29.409  17.201  -6.436  1.00  0.00     0.113 C
ATOM     12  C   UNL     1      31.230  18.749  -6.298  1.00  0.00     0.096 C
ATOM     13  C   UNL     1      28.562  18.483  -6.586  1.00  0.00     0.175 C
ATOM     14  C   UNL     1      30.300  19.885  -5.784  1.00  0.00     0.180 C
ATOM     15  O   UNL     1      28.929  19.471  -5.624  1.00  0.00    -0.378 OA
BRANCH  12  16
ATOM     16  C   UNL     1      32.729  19.073  -6.055  1.00  0.00     0.102 C
BRANCH  16  17
ATOM     17  N   UNL     1      33.124  20.310  -6.754  1.00  0.00    -0.315 NA
ATOM     18  H   UNL     1      34.094  20.238  -7.056  1.00  0.00     0.122 HD
BRANCH  17  19
ATOM     19  C   UNL     1      32.913  21.524  -5.959  1.00  0.00     0.088 C
ATOM     20  G   UNL     1      34.096  21.949  -5.058  1.00  0.00     0.000 C
ENDBRANCH  17  19
ENDBRANCH  16  17
ENDBRANCH  12  16
ENDBRANCH   9  10
ENDBRANCH   8   9
BRANCH   4  21
ATOM     21  C   UNL     1      33.784  12.608  -2.561  1.00  0.00     0.010 A
ATOM     22  C   UNL     1      35.018  12.787  -1.912  1.00  0.00     0.011 A
ATOM     23  C   UNL     1      33.305  11.307  -2.799  1.00  0.00     0.097 A
ATOM     24  C   UNL     1      35.776  11.689  -1.524  1.00  0.00     0.003 A
ATOM     25  N   UNL     1      32.104  11.122  -3.389  1.00  0.00    -0.244 NA
ATOM     26  C   UNL     1      34.090  10.190  -2.417  1.00  0.00     0.089 A
ATOM     27  C   UNL     1      35.307  10.403  -1.785  1.00  0.00     0.030 A
ATOM     28  C   UNL     1      31.696   9.854  -3.620  1.00  0.00     0.092 A
ATOM     29  N   UNL     1      33.685   8.925  -2.655  1.00  0.00    -0.252 NA
ATOM     30  C   UNL     1      32.484   8.776  -3.264  1.00  0.00     0.140 A
BRANCH  28  31
ATOM     31  C   UNL     1      30.402   9.716  -4.243  1.00  0.00     0.040 A
ATOM     32  C   UNL     1      30.068   8.679  -5.091  1.00  0.00     0.119 A
ATOM     33  C   UNL     1      29.231  10.493  -4.169  1.00  0.00     0.145 A
ATOM     34  N   UNL     1      28.767   8.869  -5.449  1.00  0.00    -0.269 N
ATOM     35  N   UNL     1      28.234   9.986  -4.902  1.00  0.00    -0.181 NA
BRANCH  34  36
ATOM     36  C   UNL     1      27.942   8.079  -6.364  1.00  0.00     0.114 C
ATOM     37  C   UNL     1      27.850   8.778  -7.734  1.00  0.00     0.043 C
ATOM     38  C   UNL     1      28.351   6.582  -6.480  1.00  0.00     0.041 C
ATOM     39  C   UNL     1      28.711   8.079  -8.773  1.00  0.00     0.083 C
ATOM     40  C   UNL     1      27.773   6.025  -7.790  1.00  0.00     0.088 C
ATOM     41  N   UNL     1      28.322   6.687  -8.976  1.00  0.00    -0.316 NA
ATOM     42  H   UNL     1      27.659   6.611  -9.748  1.00  0.00     0.122 HD
ATOM     43  G   UNL     1      27.877   5.799  -5.233  1.00  0.00     0.000 C
ENDBRANCH  34  36
ENDBRANCH  28  31
ENDBRANCH   4  21
TORSDOF 0
ENDMDL
MODEL 9
REMARK VINA RESULT:     -10.4      3.648      8.527
REMARK SMILES Fc1cc2cc(F)c1CN1CCOC[C@H]1CNC[C@H]1CNCC[C@@H]1n1cc(cn1)-c1cnc3cccc-2c3n1
REMARK SMILES IDX 1 1 2 2 3 3 4 4 5 5 6 6 7 7 8 8 9 9 10 10 11 11 15 12 12 13
REMARK SMILES IDX 14 14 13 15 16 16 17 17 18 19 37 21 36 22 38 23 35 24 39 25
REMARK SMILES IDX 33 26 34 27 30 28 32 29 31 30 27 31 26 32 28 33 25 34 29 35
REMARK SMILES IDX 24 36 23 37 19 38 22 39 20 40 21 41
REMARK H PARENT 17 18 21 42
REMARK Flexibility Score:   78.900
ROOT
ATOM      1  F   UNL     1      28.943  10.634  -5.523  1.00  0.00    -0.207 F
ATOM      2  C   UNL     1      29.804   9.756  -4.988  1.00  0.00     0.131 A
ATOM      3  C   UNL     1      30.907  10.247  -4.293  1.00  0.00     0.048 A
ATOM      4  C   UNL     1      31.831   9.372  -3.704  1.00  0.00    -0.010 A
ATOM      5  C   UNL     1      31.605   7.996  -3.827  1.00  0.00     0.048 A
ATOM      6  C   UNL     1      30.497   7.521  -4.532  1.00  0.00     0.131 A
ATOM      7  F   UNL     1      30.305   6.195  -4.594  1.00  0.00    -0.207 F
ATOM      8  C   UNL     1      29.583   8.389  -5.134  1.00  0.00     0.038 A
ENDROOT
BRANCH   8   9
ATOM      9  C   UNL     1      28.362   7.874  -5.849  1.00  0.00     0.126 C
BRANCH   9  10
ATOM     10  N   UNL     1      28.492   7.865  -7.323  1.00  0.00    -0.290 NA
ATOM     11  C   UNL     1      28.840   6.495  -7.787  1.00  0.00     0.113 C
ATOM     12  C   UNL     1      27.246   8.264  -8.041  1.00  0.00     0.096 C
ATOM     13  C   UNL     1      27.644   5.600  -8.175  1.00  0.00     0.175 C
ATOM     14  C   UNL     1      26.054   7.309  -7.748  1.00  0.00     0.180 C
ATOM     15  O   UNL     1      26.463   5.958  -7.457  1.00  0.00    -0.378 OA
BRANCH  12  16
ATOM     16  C   UNL     1      26.834   9.756  -7.924  1.00  0.00     0.102 C
BRANCH  16  17
ATOM     17  N   UNL     1      27.388  10.549  -9.037  1.00  0.00    -0.315 NA
ATOM     18  H   UNL     1      26.811  11.373  -9.191  1.00  0.00     0.122 HD
BRANCH  17  19
ATOM     19  C   UNL     1      27.548   9.783 -10.277  1.00  0.00     0.088 C
ATOM     20  G   UNL     1      26.386   9.900 -11.291  1.00  0.00     0.000 C
ENDBRANCH  17  19
ENDBRANCH  16  17
ENDBRANCH  12  16
ENDBRANCH   9  10
ENDBRANCH   8   9
BRANCH   4  21
ATOM     21  C   UNL     1      33.013   9.899  -2.996  1.00  0.00     0.010 A
ATOM     22  C   UNL     1      33.817   9.030  -2.239  1.00  0.00     0.011 A
ATOM     23  C   UNL     1      33.326  11.270  -3.048  1.00  0.00     0.097 A
ATOM     24  C   UNL     1      34.906   9.518  -1.527  1.00  0.00     0.003 A
ATOM     25  N   UNL     1      32.583  12.109  -3.800  1.00  0.00    -0.244 NA
ATOM     26  C   UNL     1      34.427  11.765  -2.306  1.00  0.00     0.089 A
ATOM     27  C   UNL     1      35.197  10.881  -1.563  1.00  0.00     0.030 A
ATOM     28  C   UNL     1      32.907  13.421  -3.800  1.00  0.00     0.092 A
ATOM     29  N   UNL     1      34.746  13.076  -2.300  1.00  0.00    -0.252 NA
ATOM     30  C   UNL     1      33.968  13.893  -3.053  1.00  0.00     0.140 A
BRANCH  28  31
ATOM     31  C   UNL     1      32.085  14.270  -4.630  1.00  0.00     0.040 A
ATOM     32  C   UNL     1      30.713  14.156  -4.719  1.00  0.00     0.119 A
ATOM     33  C   UNL     1      32.398  15.346  -5.480  1.00  0.00     0.145 A
ATOM     34  N   UNL     1      30.292  15.138  -5.565  1.00  0.00    -0.269 N
ATOM     35  N   UNL     1      31.314  15.876  -6.054  1.00  0.00    -0.181 NA
BRANCH  34  36
ATOM     36  C   UNL     1      28.936  15.427  -6.031  1.00  0.00     0.114 C
ATOM     37  C   UNL     1      28.351  14.202  -6.761  1.00  0.00     0.043 C
ATOM     38  C   UNL     1      27.978  15.989  -4.940  1.00  0.00     0.041 C
ATOM     39  C   UNL     1      27.320  13.486  -5.905  1.00  0.00     0.083 C
ATOM     40  C   UNL     1      26.532  15.766  -5.408  1.00  0.00     0.088 C
ATOM     41  N   UNL     1      26.196  14.347  -5.548  1.00  0.00    -0.316 NA
ATOM     42  H   UNL     1      25.436  14.240  -6.221  1.00  0.00     0.122 HD
ATOM     43  G   UNL     1      28.297  17.477  -4.663  1.00  0.00     0.000 C
ENDBRANCH  34  36
ENDBRANCH  28  31
ENDBRANCH   4  21
TORSDOF 0
ENDMDL
