MODEL 1
REMARK VINA RESULT:      -8.0      0.000      0.000
REMARK SMILES Cc1cnc2nc1-c1cccc(c1)COCC=C1COCc3cc(ccc3OCCN3CC[C@@H](COC1)C3)N2
REMARK SMILES IDX 22 1 23 2 24 3 25 4 26 5 27 6 39 7 5 9 2 10 3 11 7 12 4 13
REMARK SMILES IDX 6 14 1 15 8 16 9 17 13 18 10 19 12 20 11 21 14 22 15 23
REMARK SMILES IDX 16 24 21 26 20 27 19 28 18 29 17 30 37 32 36 33 35 34 28 36
REMARK SMILES IDX 29 37 30 38 31 39 32 40 38 41 33 42 34 43
REMARK H PARENT 39 8
REMARK Flexibility Score:  100.800
ROOT
ATOM      1  C   UNL     1      27.789  15.185  -6.803  1.00  0.00     0.022 A
ATOM      2  C   UNL     1      27.471  13.826  -6.961  1.00  0.00     0.036 A
ATOM      3  C   UNL     1      27.796  12.861  -6.000  1.00  0.00     0.042 A
ATOM      4  C   UNL     1      28.466  13.289  -4.848  1.00  0.00     0.030 A
ATOM      5  C   UNL     1      28.786  14.639  -4.663  1.00  0.00     0.049 A
ATOM      6  C   UNL     1      28.461  15.577  -5.644  1.00  0.00     0.125 A
ENDROOT
BRANCH   3   7
ATOM      7  N   UNL     1      27.511  11.502  -6.177  1.00  0.00    -0.324 N
ATOM      8  H   UNL     1      26.789  11.263  -6.838  1.00  0.00     0.170 HD
BRANCH   7   9
ATOM      9  C   UNL     1      28.195  10.361  -5.764  1.00  0.00     0.227 A
ATOM     10  C   UNL     1      29.563   8.078  -5.159  1.00  0.00    -0.006 A
ATOM     11  C   UNL     1      28.321   8.085  -5.772  1.00  0.00     0.120 A
ATOM     12  C   UNL     1      30.033   9.325  -4.775  1.00  0.00     0.079 A
ATOM     13  N   UNL     1      27.619   9.194  -6.062  1.00  0.00    -0.221 NA
ATOM     14  N   UNL     1      29.363  10.453  -5.109  1.00  0.00    -0.212 NA
ATOM     15  C   UNL     1      30.265   6.776  -4.953  1.00  0.00     0.048 C
BRANCH  12  16
ATOM     16  C   UNL     1      31.271   9.583  -3.990  1.00  0.00     0.001 A
ATOM     17  C   UNL     1      31.831   8.621  -3.133  1.00  0.00     0.010 A
ATOM     18  C   UNL     1      31.899  10.850  -4.024  1.00  0.00     0.016 A
ATOM     19  C   UNL     1      32.990   8.880  -2.398  1.00  0.00     0.001 A
ATOM     20  C   UNL     1      33.060  11.137  -3.283  1.00  0.00    -0.022 A
ATOM     21  C   UNL     1      33.602  10.128  -2.475  1.00  0.00     0.006 A
BRANCH  20  22
ATOM     22  C   UNL     1      33.687  12.512  -3.234  1.00  0.00     0.196 C
BRANCH  22  23
ATOM     23  O   UNL     1      32.956  13.550  -3.880  1.00  0.00    -0.373 OA
BRANCH  23  24
ATOM     24  C   UNL     1      33.136  14.834  -3.299  1.00  0.00     0.188 C
ATOM     25  G   UNL     1      31.949  15.097  -2.420  1.00  0.00     0.000 C
ENDBRANCH  23  24
ENDBRANCH  22  23
ENDBRANCH  20  22
ENDBRANCH  12  16
ENDBRANCH   7   9
ENDBRANCH   3   7
BRANCH   1  26
ATOM     26  C   UNL     1      27.358  16.143  -7.880  1.00  0.00     0.200 C
BRANCH  26  27
ATOM     27  O   UNL     1      26.160  16.799  -7.469  1.00  0.00    -0.372 OA
BRANCH  27  28
ATOM     28  C   UNL     1      25.583  17.620  -8.475  1.00  0.00     0.194 C
BRANCH  28  29
ATOM     29  C   UNL     1      26.393  18.871  -8.732  1.00  0.00    -0.021 C
ATOM     30  C   UNL     1      26.709  19.330  -9.965  1.00  0.00     0.005 C
ATOM     31  G   UNL     1      26.326  18.758 -11.298  1.00  0.00     0.000 C
BRANCH  29  32
ATOM     32  C   UNL     1      26.773  19.673  -7.504  1.00  0.00     0.193 C
BRANCH  32  33
ATOM     33  O   UNL     1      28.161  19.620  -7.201  1.00  0.00    -0.377 OA
BRANCH  33  34
ATOM     34  C   UNL     1      28.679  20.845  -6.681  1.00  0.00     0.165 C
ATOM     35  G   UNL     1      28.162  22.001  -7.545  1.00  0.00     0.000 C
ENDBRANCH  33  34
ENDBRANCH  32  33
ENDBRANCH  29  32
ENDBRANCH  28  29
ENDBRANCH  27  28
ENDBRANCH  26  27
ENDBRANCH   1  26
BRANCH   6  36
ATOM     36  O   UNL     1      28.759  16.893  -5.405  1.00  0.00    -0.492 OA
BRANCH  36  37
ATOM     37  C   UNL     1      30.175  17.065  -5.260  1.00  0.00     0.245 C
BRANCH  37  38
ATOM     38  C   UNL     1      30.832  17.321  -6.630  1.00  0.00     0.126 C
BRANCH  38  39
ATOM     39  N   UNL     1      31.807  18.422  -6.605  1.00  0.00    -0.300 NA
ATOM     40  C   UNL     1      33.169  17.982  -6.898  1.00  0.00     0.085 C
ATOM     41  C   UNL     1      31.919  19.059  -5.283  1.00  0.00     0.090 C
ATOM     42  C   UNL     1      33.999  19.198  -6.510  1.00  0.00     0.023 C
ATOM     43  C   UNL     1      33.183  19.912  -5.424  1.00  0.00     0.030 C
ATOM     44  G   UNL     1      32.867  21.361  -5.811  1.00  0.00     0.000 C
ENDBRANCH  38  39
ENDBRANCH  37  38
ENDBRANCH  36  37
ENDBRANCH   6  36
TORSDOF 0
ENDMDL
MODEL 2
REMARK VINA RESULT:      -7.9      2.462      6.415
REMARK SMILES Cc1cnc2nc1-c1cccc(c1)COCC=C1COCc3cc(ccc3OCCN3CC[C@@H](COC1)C3)N2
REMARK SMILES IDX 22 1 23 2 24 3 25 4 26 5 27 6 39 7 5 9 2 10 3 11 7 12 4 13
REMARK SMILES IDX 6 14 1 15 8 16 9 17 13 18 10 19 12 20 11 21 14 22 15 23
REMARK SMILES IDX 16 24 21 26 20 27 19 28 18 29 17 30 37 32 36 33 35 34 28 36
REMARK SMILES IDX 29 37 30 38 31 39 32 40 38 41 33 42 34 43
REMARK H PARENT 39 8
REMARK Flexibility Score:  100.800
ROOT
ATOM      1  C   UNL     1      29.714  17.315  -5.041  1.00  0.00     0.022 A
ATOM      2  C   UNL     1      30.937  17.203  -4.358  1.00  0.00     0.036 A
ATOM      3  C   UNL     1      31.658  16.005  -4.298  1.00  0.00     0.042 A
ATOM      4  C   UNL     1      31.119  14.888  -4.944  1.00  0.00     0.030 A
ATOM      5  C   UNL     1      29.906  14.974  -5.638  1.00  0.00     0.049 A
ATOM      6  C   UNL     1      29.202  16.179  -5.672  1.00  0.00     0.125 A
ENDROOT
BRANCH   3   7
ATOM      7  N   UNL     1      32.858  15.888  -3.586  1.00  0.00    -0.324 N
ATOM      8  H   UNL     1      33.200  16.712  -3.118  1.00  0.00     0.170 HD
BRANCH   7   9
ATOM      9  C   UNL     1      33.592  14.767  -3.206  1.00  0.00     0.227 A
ATOM     10  C   UNL     1      35.034  12.650  -2.267  1.00  0.00    -0.006 A
ATOM     11  C   UNL     1      35.528  13.941  -2.330  1.00  0.00     0.120 A
ATOM     12  C   UNL     1      33.771  12.478  -2.813  1.00  0.00     0.079 A
ATOM     13  N   UNL     1      34.846  14.997  -2.808  1.00  0.00    -0.221 NA
ATOM     14  N   UNL     1      33.051  13.540  -3.246  1.00  0.00    -0.212 NA
ATOM     15  C   UNL     1      35.876  11.579  -1.652  1.00  0.00     0.048 C
BRANCH  12  16
ATOM     16  C   UNL     1      33.069  11.177  -2.985  1.00  0.00     0.001 A
ATOM     17  C   UNL     1      33.577   9.974  -2.466  1.00  0.00     0.010 A
ATOM     18  C   UNL     1      31.883  11.090  -3.750  1.00  0.00     0.016 A
ATOM     19  C   UNL     1      32.910   8.760  -2.642  1.00  0.00     0.001 A
ATOM     20  C   UNL     1      31.200   9.876  -3.950  1.00  0.00    -0.022 A
ATOM     21  C   UNL     1      31.728   8.712  -3.376  1.00  0.00     0.006 A
BRANCH  20  22
ATOM     22  C   UNL     1      29.986   9.751  -4.843  1.00  0.00     0.196 C
BRANCH  22  23
ATOM     23  O   UNL     1      28.808  10.409  -4.384  1.00  0.00    -0.373 OA
BRANCH  23  24
ATOM     24  C   UNL     1      27.793  10.533  -5.370  1.00  0.00     0.188 C
ATOM     25  G   UNL     1      27.528  11.998  -5.557  1.00  0.00     0.000 C
ENDBRANCH  23  24
ENDBRANCH  22  23
ENDBRANCH  20  22
ENDBRANCH  12  16
ENDBRANCH   7   9
ENDBRANCH   3   7
BRANCH   1  26
ATOM     26  C   UNL     1      29.042  18.661  -5.076  1.00  0.00     0.200 C
BRANCH  26  27
ATOM     27  O   UNL     1      29.644  19.455  -6.097  1.00  0.00    -0.372 OA
BRANCH  27  28
ATOM     28  C   UNL     1      30.275  20.631  -5.608  1.00  0.00     0.194 C
BRANCH  28  29
ATOM     29  C   UNL     1      31.781  20.566  -5.719  1.00  0.00    -0.021 C
ATOM     30  C   UNL     1      32.630  21.296  -4.959  1.00  0.00     0.005 C
ATOM     31  G   UNL     1      32.299  22.268  -3.865  1.00  0.00     0.000 C
BRANCH  29  32
ATOM     32  C   UNL     1      32.326  19.539  -6.691  1.00  0.00     0.193 C
BRANCH  32  33
ATOM     33  O   UNL     1      33.741  19.411  -6.644  1.00  0.00    -0.377 OA
BRANCH  33  34
ATOM     34  C   UNL     1      34.185  18.137  -6.177  1.00  0.00     0.165 C
ATOM     35  G   UNL     1      33.671  17.058  -7.137  1.00  0.00     0.000 C
ENDBRANCH  33  34
ENDBRANCH  32  33
ENDBRANCH  29  32
ENDBRANCH  28  29
ENDBRANCH  27  28
ENDBRANCH  26  27
ENDBRANCH   1  26
BRANCH   6  36
ATOM     36  O   UNL     1      28.039  16.229  -6.394  1.00  0.00    -0.492 OA
BRANCH  36  37
ATOM     37  C   UNL     1      28.312  16.069  -7.792  1.00  0.00     0.245 C
BRANCH  37  38
ATOM     38  C   UNL     1      27.016  16.203  -8.615  1.00  0.00     0.126 C
BRANCH  38  39
ATOM     39  N   UNL     1      26.420  14.905  -8.966  1.00  0.00    -0.300 NA
ATOM     40  C   UNL     1      25.435  14.449  -7.989  1.00  0.00     0.085 C
ATOM     41  C   UNL     1      27.406  13.813  -9.007  1.00  0.00     0.090 C
ATOM     42  C   UNL     1      25.213  12.999  -8.396  1.00  0.00     0.023 C
ATOM     43  C   UNL     1      26.525  12.562  -9.060  1.00  0.00     0.030 C
ATOM     44  G   UNL     1      26.300  12.069 -10.494  1.00  0.00     0.000 C
ENDBRANCH  38  39
ENDBRANCH  37  38
ENDBRANCH  36  37
ENDBRANCH   6  36
TORSDOF 0
ENDMDL
MODEL 3
REMARK VINA RESULT:      -7.9      0.867      1.178
REMARK SMILES Cc1cnc2nc1-c1cccc(c1)COCC=C1COCc3cc(ccc3OCCN3CC[C@@H](COC1)C3)N2
REMARK SMILES IDX 22 1 23 2 24 3 25 4 26 5 27 6 39 7 5 9 2 10 3 11 7 12 4 13
REMARK SMILES IDX 6 14 1 15 8 16 9 17 13 18 10 19 12 20 11 21 14 22 15 23
REMARK SMILES IDX 16 24 21 26 20 27 19 28 18 29 17 30 37 32 36 33 35 34 28 36
REMARK SMILES IDX 29 37 30 38 31 39 32 40 38 41 33 42 34 43
REMARK H PARENT 39 8
REMARK Flexibility Score:  100.800
ROOT
ATOM      1  C   UNL     1      28.046  15.021  -7.031  1.00  0.00     0.022 A
ATOM      2  C   UNL     1      27.608  13.694  -6.885  1.00  0.00     0.036 A
ATOM      3  C   UNL     1      27.678  13.008  -5.667  1.00  0.00     0.042 A
ATOM      4  C   UNL     1      28.214  13.688  -4.568  1.00  0.00     0.030 A
ATOM      5  C   UNL     1      28.650  15.013  -4.685  1.00  0.00     0.049 A
ATOM      6  C   UNL     1      28.579  15.668  -5.915  1.00  0.00     0.125 A
ENDROOT
BRANCH   3   7
ATOM      7  N   UNL     1      27.275  11.674  -5.533  1.00  0.00    -0.324 N
ATOM      8  H   UNL     1      26.315  11.458  -5.748  1.00  0.00     0.170 HD
BRANCH   7   9
ATOM      9  C   UNL     1      28.015  10.506  -5.360  1.00  0.00     0.227 A
ATOM     10  C   UNL     1      29.477   8.206  -5.232  1.00  0.00    -0.006 A
ATOM     11  C   UNL     1      28.197   8.269  -5.756  1.00  0.00     0.120 A
ATOM     12  C   UNL     1      29.941   9.389  -4.676  1.00  0.00     0.079 A
ATOM     13  N   UNL     1      27.449   9.384  -5.812  1.00  0.00    -0.221 NA
ATOM     14  N   UNL     1      29.221  10.532  -4.774  1.00  0.00    -0.212 NA
ATOM     15  C   UNL     1      30.224   6.914  -5.291  1.00  0.00     0.048 C
BRANCH  12  16
ATOM     16  C   UNL     1      31.222   9.558  -3.939  1.00  0.00     0.001 A
ATOM     17  C   UNL     1      31.782   8.532  -3.159  1.00  0.00     0.010 A
ATOM     18  C   UNL     1      31.899  10.800  -3.938  1.00  0.00     0.016 A
ATOM     19  C   UNL     1      32.983   8.708  -2.467  1.00  0.00     0.001 A
ATOM     20  C   UNL     1      33.103  11.004  -3.239  1.00  0.00    -0.022 A
ATOM     21  C   UNL     1      33.640   9.935  -2.511  1.00  0.00     0.006 A
BRANCH  20  22
ATOM     22  C   UNL     1      33.787  12.351  -3.151  1.00  0.00     0.196 C
BRANCH  22  23
ATOM     23  O   UNL     1      33.107  13.433  -3.780  1.00  0.00    -0.373 OA
BRANCH  23  24
ATOM     24  C   UNL     1      32.800  14.510  -2.906  1.00  0.00     0.188 C
ATOM     25  G   UNL     1      33.208  15.778  -3.598  1.00  0.00     0.000 C
ENDBRANCH  23  24
ENDBRANCH  22  23
ENDBRANCH  20  22
ENDBRANCH  12  16
ENDBRANCH   7   9
ENDBRANCH   3   7
BRANCH   1  26
ATOM     26  C   UNL     1      27.887  15.675  -8.377  1.00  0.00     0.200 C
BRANCH  26  27
ATOM     27  O   UNL     1      26.523  16.053  -8.553  1.00  0.00    -0.372 OA
BRANCH  27  28
ATOM     28  C   UNL     1      26.168  16.303  -9.906  1.00  0.00     0.194 C
BRANCH  28  29
ATOM     29  C   UNL     1      26.506  17.711 -10.341  1.00  0.00    -0.021 C
ATOM     30  C   UNL     1      27.148  18.017 -11.491  1.00  0.00     0.005 C
ATOM     31  G   UNL     1      27.624  17.086 -12.568  1.00  0.00     0.000 C
BRANCH  29  32
ATOM     32  C   UNL     1      25.993  18.818  -9.442  1.00  0.00     0.193 C
BRANCH  32  33
ATOM     33  O   UNL     1      26.973  19.312  -8.537  1.00  0.00    -0.377 OA
BRANCH  33  34
ATOM     34  C   UNL     1      26.448  19.645  -7.252  1.00  0.00     0.165 C
ATOM     35  G   UNL     1      24.918  19.661  -7.338  1.00  0.00     0.000 C
ENDBRANCH  33  34
ENDBRANCH  32  33
ENDBRANCH  29  32
ENDBRANCH  28  29
ENDBRANCH  27  28
ENDBRANCH  26  27
ENDBRANCH   1  26
BRANCH   6  36
ATOM     36  O   UNL     1      28.981  16.976  -5.977  1.00  0.00    -0.492 OA
BRANCH  36  37
ATOM     37  C   UNL     1      30.300  17.118  -5.433  1.00  0.00     0.245 C
BRANCH  37  38
ATOM     38  C   UNL     1      31.351  17.134  -6.561  1.00  0.00     0.126 C
BRANCH  38  39
ATOM     39  N   UNL     1      32.117  18.389  -6.616  1.00  0.00    -0.300 NA
ATOM     40  C   UNL     1      33.510  18.187  -7.009  1.00  0.00     0.085 C
ATOM     41  C   UNL     1      32.213  19.061  -5.310  1.00  0.00     0.090 C
ATOM     42  C   UNL     1      34.140  19.537  -6.692  1.00  0.00     0.023 C
ATOM     43  C   UNL     1      33.293  20.118  -5.552  1.00  0.00     0.030 C
ATOM     44  G   UNL     1      32.700  21.483  -5.922  1.00  0.00     0.000 C
ENDBRANCH  38  39
ENDBRANCH  37  38
ENDBRANCH  36  37
ENDBRANCH   6  36
TORSDOF 0
ENDMDL
MODEL 4
REMARK VINA RESULT:      -7.9      2.578      6.083
REMARK SMILES Cc1cnc2nc1-c1cccc(c1)COCC=C1COCc3cc(ccc3OCCN3CC[C@@H](COC1)C3)N2
REMARK SMILES IDX 22 1 23 2 24 3 25 4 26 5 27 6 39 7 5 9 2 10 3 11 7 12 4 13
REMARK SMILES IDX 6 14 1 15 8 16 9 17 13 18 10 19 12 20 11 21 14 22 15 23
REMARK SMILES IDX 16 24 21 26 20 27 19 28 18 29 17 30 37 32 36 33 35 34 28 36
REMARK SMILES IDX 29 37 30 38 31 39 32 40 38 41 33 42 34 43
REMARK H PARENT 39 8
REMARK Flexibility Score:  100.800
ROOT
ATOM      1  C   UNL     1      31.158  16.468  -5.071  1.00  0.00     0.022 A
ATOM      2  C   UNL     1      32.360  15.860  -4.671  1.00  0.00     0.036 A
ATOM      3  C   UNL     1      32.533  15.297  -3.402  1.00  0.00     0.042 A
ATOM      4  C   UNL     1      31.455  15.357  -2.511  1.00  0.00     0.030 A
ATOM      5  C   UNL     1      30.244  15.950  -2.887  1.00  0.00     0.049 A
ATOM      6  C   UNL     1      30.104  16.515  -4.156  1.00  0.00     0.125 A
ENDROOT
BRANCH   3   7
ATOM      7  N   UNL     1      33.744  14.725  -2.994  1.00  0.00    -0.324 N
ATOM      8  H   UNL     1      34.469  15.350  -2.683  1.00  0.00     0.170 HD
BRANCH   7   9
ATOM      9  C   UNL     1      34.086  13.402  -2.723  1.00  0.00     0.227 A
ATOM     10  C   UNL     1      34.750  10.860  -1.985  1.00  0.00    -0.006 A
ATOM     11  C   UNL     1      35.569  11.955  -1.772  1.00  0.00     0.120 A
ATOM     12  C   UNL     1      33.591  11.125  -2.700  1.00  0.00     0.079 A
ATOM     13  N   UNL     1      35.274  13.213  -2.143  1.00  0.00    -0.221 NA
ATOM     14  N   UNL     1      33.256  12.395  -3.032  1.00  0.00    -0.212 NA
ATOM     15  C   UNL     1      35.169   9.525  -1.463  1.00  0.00     0.048 C
BRANCH  12  16
ATOM     16  C   UNL     1      32.610  10.111  -3.171  1.00  0.00     0.001 A
ATOM     17  C   UNL     1      32.766   8.738  -2.916  1.00  0.00     0.010 A
ATOM     18  C   UNL     1      31.503  10.489  -3.967  1.00  0.00     0.016 A
ATOM     19  C   UNL     1      31.840   7.797  -3.372  1.00  0.00     0.001 A
ATOM     20  C   UNL     1      30.564   9.557  -4.446  1.00  0.00    -0.022 A
ATOM     21  C   UNL     1      30.745   8.205  -4.128  1.00  0.00     0.006 A
BRANCH  20  22
ATOM     22  C   UNL     1      29.431   9.933  -5.376  1.00  0.00     0.196 C
BRANCH  22  23
ATOM     23  O   UNL     1      28.118   9.778  -4.847  1.00  0.00    -0.373 OA
BRANCH  23  24
ATOM     24  C   UNL     1      27.187   9.218  -5.762  1.00  0.00     0.188 C
ATOM     25  G   UNL     1      27.587   7.790  -5.989  1.00  0.00     0.000 C
ENDBRANCH  23  24
ENDBRANCH  22  23
ENDBRANCH  20  22
ENDBRANCH  12  16
ENDBRANCH   7   9
ENDBRANCH   3   7
BRANCH   1  26
ATOM     26  C   UNL     1      31.068  17.006  -6.473  1.00  0.00     0.200 C
BRANCH  26  27
ATOM     27  O   UNL     1      31.366  18.401  -6.456  1.00  0.00    -0.372 OA
BRANCH  27  28
ATOM     28  C   UNL     1      30.217  19.233  -6.537  1.00  0.00     0.194 C
BRANCH  28  29
ATOM     29  C   UNL     1      30.488  20.640  -6.056  1.00  0.00    -0.021 C
ATOM     30  C   UNL     1      29.638  21.678  -6.229  1.00  0.00     0.005 C
ATOM     31  G   UNL     1      28.284  21.675  -6.875  1.00  0.00     0.000 C
BRANCH  29  32
ATOM     32  C   UNL     1      31.762  20.828  -5.258  1.00  0.00     0.193 C
BRANCH  32  33
ATOM     33  O   UNL     1      32.555  21.920  -5.707  1.00  0.00    -0.377 OA
BRANCH  33  34
ATOM     34  C   UNL     1      33.958  21.653  -5.687  1.00  0.00     0.165 C
ATOM     35  G   UNL     1      34.222  20.365  -6.475  1.00  0.00     0.000 C
ENDBRANCH  33  34
ENDBRANCH  32  33
ENDBRANCH  29  32
ENDBRANCH  28  29
ENDBRANCH  27  28
ENDBRANCH  26  27
ENDBRANCH   1  26
BRANCH   6  36
ATOM     36  O   UNL     1      28.890  17.051  -4.496  1.00  0.00    -0.492 OA
BRANCH  36  37
ATOM     37  C   UNL     1      28.269  16.267  -5.523  1.00  0.00     0.245 C
BRANCH  37  38
ATOM     38  C   UNL     1      26.933  15.682  -5.023  1.00  0.00     0.126 C
BRANCH  38  39
ATOM     39  N   UNL     1      26.018  15.322  -6.116  1.00  0.00    -0.300 NA
ATOM     40  C   UNL     1      25.479  13.971  -5.984  1.00  0.00     0.085 C
ATOM     41  C   UNL     1      26.672  15.313  -7.434  1.00  0.00     0.090 C
ATOM     42  C   UNL     1      24.841  13.736  -7.347  1.00  0.00     0.023 C
ATOM     43  C   UNL     1      25.639  14.612  -8.321  1.00  0.00     0.030 C
ATOM     44  G   UNL     1      24.737  15.607  -9.061  1.00  0.00     0.000 C
ENDBRANCH  38  39
ENDBRANCH  37  38
ENDBRANCH  36  37
ENDBRANCH   6  36
TORSDOF 0
ENDMDL
MODEL 5
REMARK VINA RESULT:      -7.7      1.015      1.371
REMARK SMILES Cc1cnc2nc1-c1cccc(c1)COCC=C1COCc3cc(ccc3OCCN3CC[C@@H](COC1)C3)N2
REMARK SMILES IDX 22 1 23 2 24 3 25 4 26 5 27 6 39 7 5 9 2 10 3 11 7 12 4 13
REMARK SMILES IDX 6 14 1 15 8 16 9 17 13 18 10 19 12 20 11 21 14 22 15 23
REMARK SMILES IDX 16 24 21 26 20 27 19 28 18 29 17 30 37 32 36 33 35 34 28 36
REMARK SMILES IDX 29 37 30 38 31 39 32 40 38 41 33 42 34 43
REMARK H PARENT 39 8
REMARK Flexibility Score:  100.800
ROOT
ATOM      1  C   UNL     1      28.277  15.408  -6.996  1.00  0.00     0.022 A
ATOM      2  C   UNL     1      27.765  14.107  -6.855  1.00  0.00     0.036 A
ATOM      3  C   UNL     1      27.920  13.360  -5.681  1.00  0.00     0.042 A
ATOM      4  C   UNL     1      28.618  13.951  -4.622  1.00  0.00     0.030 A
ATOM      5  C   UNL     1      29.130  15.249  -4.734  1.00  0.00     0.049 A
ATOM      6  C   UNL     1      28.972  15.965  -5.921  1.00  0.00     0.125 A
ENDROOT
BRANCH   3   7
ATOM      7  N   UNL     1      27.440  12.051  -5.557  1.00  0.00    -0.324 N
ATOM      8  H   UNL     1      26.479  11.885  -5.809  1.00  0.00     0.170 HD
BRANCH   7   9
ATOM      9  C   UNL     1      28.109  10.847  -5.349  1.00  0.00     0.227 A
ATOM     10  C   UNL     1      29.432   8.469  -5.151  1.00  0.00    -0.006 A
ATOM     11  C   UNL     1      28.160   8.592  -5.681  1.00  0.00     0.120 A
ATOM     12  C   UNL     1      29.965   9.637  -4.626  1.00  0.00     0.079 A
ATOM     13  N   UNL     1      27.479   9.748  -5.771  1.00  0.00    -0.221 NA
ATOM     14  N   UNL     1      29.314  10.817  -4.759  1.00  0.00    -0.212 NA
ATOM     15  C   UNL     1      30.102   7.134  -5.170  1.00  0.00     0.048 C
BRANCH  12  16
ATOM     16  C   UNL     1      31.252   9.751  -3.889  1.00  0.00     0.001 A
ATOM     17  C   UNL     1      31.829   8.664  -3.211  1.00  0.00     0.010 A
ATOM     18  C   UNL     1      31.918  10.994  -3.783  1.00  0.00     0.016 A
ATOM     19  C   UNL     1      33.035   8.788  -2.518  1.00  0.00     0.001 A
ATOM     20  C   UNL     1      33.128  11.145  -3.080  1.00  0.00    -0.022 A
ATOM     21  C   UNL     1      33.681  10.019  -2.457  1.00  0.00     0.006 A
BRANCH  20  22
ATOM     22  C   UNL     1      33.801  12.484  -2.878  1.00  0.00     0.196 C
BRANCH  22  23
ATOM     23  O   UNL     1      33.590  13.447  -3.906  1.00  0.00    -0.373 OA
BRANCH  23  24
ATOM     24  C   UNL     1      32.927  14.625  -3.470  1.00  0.00     0.188 C
ATOM     25  G   UNL     1      32.346  14.336  -2.116  1.00  0.00     0.000 C
ENDBRANCH  23  24
ENDBRANCH  22  23
ENDBRANCH  20  22
ENDBRANCH  12  16
ENDBRANCH   7   9
ENDBRANCH   3   7
BRANCH   1  26
ATOM     26  C   UNL     1      28.019  16.134  -8.288  1.00  0.00     0.200 C
BRANCH  26  27
ATOM     27  O   UNL     1      27.084  17.185  -8.053  1.00  0.00    -0.372 OA
BRANCH  27  28
ATOM     28  C   UNL     1      26.114  17.329  -9.082  1.00  0.00     0.194 C
BRANCH  28  29
ATOM     29  C   UNL     1      26.448  18.453 -10.036  1.00  0.00    -0.021 C
ATOM     30  C   UNL     1      26.822  18.271 -11.323  1.00  0.00     0.005 C
ATOM     31  G   UNL     1      26.956  16.982 -12.080  1.00  0.00     0.000 C
BRANCH  29  32
ATOM     32  C   UNL     1      26.250  19.855  -9.496  1.00  0.00     0.193 C
BRANCH  32  33
ATOM     33  O   UNL     1      27.465  20.574  -9.329  1.00  0.00    -0.377 OA
BRANCH  33  34
ATOM     34  C   UNL     1      27.553  21.267  -8.084  1.00  0.00     0.165 C
ATOM     35  G   UNL     1      28.446  20.458  -7.136  1.00  0.00     0.000 C
ENDBRANCH  33  34
ENDBRANCH  32  33
ENDBRANCH  29  32
ENDBRANCH  28  29
ENDBRANCH  27  28
ENDBRANCH  26  27
ENDBRANCH   1  26
BRANCH   6  36
ATOM     36  O   UNL     1      29.456  17.246  -5.974  1.00  0.00    -0.492 OA
BRANCH  36  37
ATOM     37  C   UNL     1      30.129  17.575  -4.752  1.00  0.00     0.245 C
BRANCH  37  38
ATOM     38  C   UNL     1      31.625  17.839  -5.012  1.00  0.00     0.126 C
BRANCH  38  39
ATOM     39  N   UNL     1      31.983  19.262  -4.920  1.00  0.00    -0.300 NA
ATOM     40  C   UNL     1      30.937  20.072  -4.300  1.00  0.00     0.085 C
ATOM     41  C   UNL     1      32.181  19.891  -6.236  1.00  0.00     0.090 C
ATOM     42  C   UNL     1      31.397  21.492  -4.602  1.00  0.00     0.023 C
ATOM     43  C   UNL     1      32.212  21.384  -5.897  1.00  0.00     0.030 C
ATOM     44  G   UNL     1      33.640  21.911  -5.717  1.00  0.00     0.000 C
ENDBRANCH  38  39
ENDBRANCH  37  38
ENDBRANCH  36  37
ENDBRANCH   6  36
TORSDOF 0
ENDMDL
MODEL 6
REMARK VINA RESULT:      -7.7      1.795      4.354
REMARK SMILES Cc1cnc2nc1-c1cccc(c1)COCC=C1COCc3cc(ccc3OCCN3CC[C@@H](COC1)C3)N2
REMARK SMILES IDX 22 1 23 2 24 3 25 4 26 5 27 6 39 7 5 9 2 10 3 11 7 12 4 13
REMARK SMILES IDX 6 14 1 15 8 16 9 17 13 18 10 19 12 20 11 21 14 22 15 23
REMARK SMILES IDX 16 24 21 26 20 27 19 28 18 29 17 30 37 32 36 33 35 34 28 36
REMARK SMILES IDX 29 37 30 38 31 39 32 40 38 41 33 42 34 43
REMARK H PARENT 39 8
REMARK Flexibility Score:  100.800
ROOT
ATOM      1  C   UNL     1      28.226  14.951  -6.187  1.00  0.00     0.022 A
ATOM      2  C   UNL     1      28.078  13.740  -5.491  1.00  0.00     0.036 A
ATOM      3  C   UNL     1      27.329  12.670  -5.995  1.00  0.00     0.042 A
ATOM      4  C   UNL     1      26.710  12.837  -7.239  1.00  0.00     0.030 A
ATOM      5  C   UNL     1      26.849  14.032  -7.956  1.00  0.00     0.049 A
ATOM      6  C   UNL     1      27.592  15.087  -7.423  1.00  0.00     0.125 A
ENDROOT
BRANCH   3   7
ATOM      7  N   UNL     1      27.153  11.478  -5.283  1.00  0.00    -0.324 N
ATOM      8  H   UNL     1      26.232  11.286  -4.922  1.00  0.00     0.170 HD
BRANCH   7   9
ATOM      9  C   UNL     1      27.975  10.360  -5.150  1.00  0.00     0.227 A
ATOM     10  C   UNL     1      29.593   8.164  -5.100  1.00  0.00    -0.006 A
ATOM     11  C   UNL     1      28.299   8.148  -5.592  1.00  0.00     0.120 A
ATOM     12  C   UNL     1      29.989   9.366  -4.532  1.00  0.00     0.079 A
ATOM     13  N   UNL     1      27.475   9.210  -5.609  1.00  0.00    -0.221 NA
ATOM     14  N   UNL     1      29.191  10.458  -4.592  1.00  0.00    -0.212 NA
ATOM     15  C   UNL     1      30.425   6.928  -5.200  1.00  0.00     0.048 C
BRANCH  12  16
ATOM     16  C   UNL     1      31.273   9.610  -3.822  1.00  0.00     0.001 A
ATOM     17  C   UNL     1      31.880   8.637  -3.009  1.00  0.00     0.010 A
ATOM     18  C   UNL     1      31.906  10.873  -3.883  1.00  0.00     0.016 A
ATOM     19  C   UNL     1      33.083   8.884  -2.343  1.00  0.00     0.001 A
ATOM     20  C   UNL     1      33.112  11.147  -3.212  1.00  0.00    -0.022 A
ATOM     21  C   UNL     1      33.696  10.129  -2.448  1.00  0.00     0.006 A
BRANCH  20  22
ATOM     22  C   UNL     1      33.749  12.519  -3.190  1.00  0.00     0.196 C
BRANCH  22  23
ATOM     23  O   UNL     1      33.241  13.423  -2.214  1.00  0.00    -0.373 OA
BRANCH  23  24
ATOM     24  C   UNL     1      32.206  14.271  -2.692  1.00  0.00     0.188 C
ATOM     25  G   UNL     1      32.768  15.060  -3.838  1.00  0.00     0.000 C
ENDBRANCH  23  24
ENDBRANCH  22  23
ENDBRANCH  20  22
ENDBRANCH  12  16
ENDBRANCH   7   9
ENDBRANCH   3   7
BRANCH   1  26
ATOM     26  C   UNL     1      29.086  16.021  -5.571  1.00  0.00     0.200 C
BRANCH  26  27
ATOM     27  O   UNL     1      30.231  16.231  -6.395  1.00  0.00    -0.372 OA
BRANCH  27  28
ATOM     28  C   UNL     1      30.541  17.602  -6.605  1.00  0.00     0.194 C
BRANCH  28  29
ATOM     29  C   UNL     1      31.637  18.093  -5.686  1.00  0.00    -0.021 C
ATOM     30  C   UNL     1      32.958  17.975  -5.950  1.00  0.00     0.005 C
ATOM     31  G   UNL     1      33.617  17.390  -7.164  1.00  0.00     0.000 C
BRANCH  29  32
ATOM     32  C   UNL     1      31.173  18.837  -4.450  1.00  0.00     0.193 C
BRANCH  32  33
ATOM     33  O   UNL     1      31.771  20.119  -4.304  1.00  0.00    -0.377 OA
BRANCH  33  34
ATOM     34  C   UNL     1      31.064  21.159  -4.980  1.00  0.00     0.165 C
ATOM     35  G   UNL     1      32.013  21.821  -5.987  1.00  0.00     0.000 C
ENDBRANCH  33  34
ENDBRANCH  32  33
ENDBRANCH  29  32
ENDBRANCH  28  29
ENDBRANCH  27  28
ENDBRANCH  26  27
ENDBRANCH   1  26
BRANCH   6  36
ATOM     36  O   UNL     1      27.733  16.223  -8.175  1.00  0.00    -0.492 OA
BRANCH  36  37
ATOM     37  C   UNL     1      27.593  15.920  -9.569  1.00  0.00     0.245 C
BRANCH  37  38
ATOM     38  C   UNL     1      26.272  16.494 -10.117  1.00  0.00     0.126 C
BRANCH  38  39
ATOM     39  N   UNL     1      26.475  17.522 -11.150  1.00  0.00    -0.300 NA
ATOM     40  C   UNL     1      27.658  17.275 -11.971  1.00  0.00     0.085 C
ATOM     41  C   UNL     1      26.710  18.862 -10.588  1.00  0.00     0.090 C
ATOM     42  C   UNL     1      27.820  18.591 -12.719  1.00  0.00     0.023 C
ATOM     43  C   UNL     1      27.207  19.655 -11.800  1.00  0.00     0.030 C
ATOM     44  G   UNL     1      26.078  20.425 -12.494  1.00  0.00     0.000 C
ENDBRANCH  38  39
ENDBRANCH  37  38
ENDBRANCH  36  37
ENDBRANCH   6  36
TORSDOF 0
ENDMDL
MODEL 7
REMARK VINA RESULT:      -7.6      3.119      7.572
REMARK SMILES Cc1cnc2nc1-c1cccc(c1)COCC=C1COCc3cc(ccc3OCCN3CC[C@@H](COC1)C3)N2
REMARK SMILES IDX 22 1 23 2 24 3 25 4 26 5 27 6 39 7 5 9 2 10 3 11 7 12 4 13
REMARK SMILES IDX 6 14 1 15 8 16 9 17 13 18 10 19 12 20 11 21 14 22 15 23
REMARK SMILES IDX 16 24 21 26 20 27 19 28 18 29 17 30 37 32 36 33 35 34 28 36
REMARK SMILES IDX 29 37 30 38 31 39 32 40 38 41 33 42 34 43
REMARK H PARENT 39 8
REMARK Flexibility Score:  100.800
ROOT
ATOM      1  C   UNL     1      28.841  10.480  -5.163  1.00  0.00     0.022 A
ATOM      2  C   UNL     1      30.073  10.516  -4.488  1.00  0.00     0.036 A
ATOM      3  C   UNL     1      30.852   9.372  -4.285  1.00  0.00     0.042 A
ATOM      4  C   UNL     1      30.364   8.156  -4.776  1.00  0.00     0.030 A
ATOM      5  C   UNL     1      29.143   8.095  -5.459  1.00  0.00     0.049 A
ATOM      6  C   UNL     1      28.381   9.250  -5.637  1.00  0.00     0.125 A
ENDROOT
BRANCH   3   7
ATOM      7  N   UNL     1      32.061   9.404  -3.580  1.00  0.00    -0.324 N
ATOM      8  H   UNL     1      32.550   8.531  -3.459  1.00  0.00     0.170 HD
BRANCH   7   9
ATOM      9  C   UNL     1      32.861  10.473  -3.181  1.00  0.00     0.227 A
ATOM     10  C   UNL     1      34.558  12.516  -2.556  1.00  0.00    -0.006 A
ATOM     11  C   UNL     1      34.892  11.179  -2.425  1.00  0.00     0.120 A
ATOM     12  C   UNL     1      33.247  12.758  -2.939  1.00  0.00     0.079 A
ATOM     13  N   UNL     1      34.068  10.155  -2.706  1.00  0.00    -0.221 NA
ATOM     14  N   UNL     1      32.423  11.738  -3.278  1.00  0.00    -0.212 NA
ATOM     15  C   UNL     1      35.592  13.555  -2.270  1.00  0.00     0.048 C
BRANCH  12  16
ATOM     16  C   UNL     1      32.601  14.095  -3.028  1.00  0.00     0.001 A
ATOM     17  C   UNL     1      31.614  14.516  -2.120  1.00  0.00     0.010 A
ATOM     18  C   UNL     1      32.908  14.979  -4.089  1.00  0.00     0.016 A
ATOM     19  C   UNL     1      31.011  15.772  -2.222  1.00  0.00     0.001 A
ATOM     20  C   UNL     1      32.306  16.244  -4.217  1.00  0.00    -0.022 A
ATOM     21  C   UNL     1      31.358  16.630  -3.260  1.00  0.00     0.006 A
BRANCH  20  22
ATOM     22  C   UNL     1      32.554  17.159  -5.396  1.00  0.00     0.196 C
BRANCH  22  23
ATOM     23  O   UNL     1      32.322  18.545  -5.165  1.00  0.00    -0.373 OA
BRANCH  23  24
ATOM     24  C   UNL     1      32.597  19.373  -6.286  1.00  0.00     0.188 C
ATOM     25  G   UNL     1      33.991  19.057  -6.744  1.00  0.00     0.000 C
ENDBRANCH  23  24
ENDBRANCH  22  23
ENDBRANCH  20  22
ENDBRANCH  12  16
ENDBRANCH   7   9
ENDBRANCH   3   7
BRANCH   1  26
ATOM     26  C   UNL     1      28.104  11.777  -5.361  1.00  0.00     0.200 C
BRANCH  26  27
ATOM     27  O   UNL     1      29.046  12.848  -5.395  1.00  0.00    -0.372 OA
BRANCH  27  28
ATOM     28  C   UNL     1      28.643  13.988  -4.648  1.00  0.00     0.194 C
BRANCH  28  29
ATOM     29  C   UNL     1      28.002  15.048  -5.514  1.00  0.00    -0.021 C
ATOM     30  C   UNL     1      26.674  15.306  -5.539  1.00  0.00     0.005 C
ATOM     31  G   UNL     1      25.585  14.660  -4.735  1.00  0.00     0.000 C
BRANCH  29  32
ATOM     32  C   UNL     1      28.957  15.908  -6.316  1.00  0.00     0.193 C
BRANCH  32  33
ATOM     33  O   UNL     1      28.355  17.086  -6.838  1.00  0.00    -0.377 OA
BRANCH  33  34
ATOM     34  C   UNL     1      28.987  18.291  -6.403  1.00  0.00     0.165 C
ATOM     35  G   UNL     1      28.785  18.429  -4.889  1.00  0.00     0.000 C
ENDBRANCH  33  34
ENDBRANCH  32  33
ENDBRANCH  29  32
ENDBRANCH  28  29
ENDBRANCH  27  28
ENDBRANCH  26  27
ENDBRANCH   1  26
BRANCH   6  36
ATOM     36  O   UNL     1      27.211   9.152  -6.343  1.00  0.00    -0.492 OA
BRANCH  36  37
ATOM     37  C   UNL     1      27.433   8.465  -7.582  1.00  0.00     0.245 C
BRANCH  37  38
ATOM     38  C   UNL     1      27.578   9.473  -8.740  1.00  0.00     0.126 C
BRANCH  38  39
ATOM     39  N   UNL     1      27.675   8.827 -10.057  1.00  0.00    -0.300 NA
ATOM     40  C   UNL     1      28.143   9.734 -11.102  1.00  0.00     0.085 C
ATOM     41  C   UNL     1      26.376   8.351 -10.560  1.00  0.00     0.090 C
ATOM     42  C   UNL     1      27.861   8.946 -12.374  1.00  0.00     0.023 C
ATOM     43  C   UNL     1      26.676   8.035 -12.027  1.00  0.00     0.030 C
ATOM     44  G   UNL     1      27.012   6.555 -12.247  1.00  0.00     0.000 C
ENDBRANCH  38  39
ENDBRANCH  37  38
ENDBRANCH  36  37
ENDBRANCH   6  36
TORSDOF 0
ENDMDL
MODEL 8
REMARK VINA RESULT:      -7.6      1.788      4.400
REMARK SMILES Cc1cnc2nc1-c1cccc(c1)COCC=C1COCc3cc(ccc3OCCN3CC[C@@H](COC1)C3)N2
REMARK SMILES IDX 22 1 23 2 24 3 25 4 26 5 27 6 39 7 5 9 2 10 3 11 7 12 4 13
REMARK SMILES IDX 6 14 1 15 8 16 9 17 13 18 10 19 12 20 11 21 14 22 15 23
REMARK SMILES IDX 16 24 21 26 20 27 19 28 18 29 17 30 37 32 36 33 35 34 28 36
REMARK SMILES IDX 29 37 30 38 31 39 32 40 38 41 33 42 34 43
REMARK H PARENT 39 8
REMARK Flexibility Score:  100.800
ROOT
ATOM      1  C   UNL     1      29.212  15.075  -5.986  1.00  0.00     0.022 A
ATOM      2  C   UNL     1      28.774  13.772  -5.693  1.00  0.00     0.036 A
ATOM      3  C   UNL     1      27.444  13.370  -5.863  1.00  0.00     0.042 A
ATOM      4  C   UNL     1      26.532  14.319  -6.338  1.00  0.00     0.030 A
ATOM      5  C   UNL     1      26.945  15.622  -6.644  1.00  0.00     0.049 A
ATOM      6  C   UNL     1      28.275  15.998  -6.454  1.00  0.00     0.125 A
ENDROOT
BRANCH   3   7
ATOM      7  N   UNL     1      27.003  12.082  -5.536  1.00  0.00    -0.324 N
ATOM      8  H   UNL     1      26.007  11.931  -5.494  1.00  0.00     0.170 HD
BRANCH   7   9
ATOM      9  C   UNL     1      27.687  10.871  -5.462  1.00  0.00     0.227 A
ATOM     10  C   UNL     1      29.043   8.504  -5.528  1.00  0.00    -0.006 A
ATOM     11  C   UNL     1      27.773   8.671  -6.054  1.00  0.00     0.120 A
ATOM     12  C   UNL     1      29.553   9.610  -4.864  1.00  0.00     0.079 A
ATOM     13  N   UNL     1      27.076   9.820  -6.016  1.00  0.00    -0.221 NA
ATOM     14  N   UNL     1      28.886  10.789  -4.867  1.00  0.00    -0.212 NA
ATOM     15  C   UNL     1      29.732   7.189  -5.695  1.00  0.00     0.048 C
BRANCH  12  16
ATOM     16  C   UNL     1      30.831   9.655  -4.105  1.00  0.00     0.001 A
ATOM     17  C   UNL     1      31.278   8.577  -3.321  1.00  0.00     0.010 A
ATOM     18  C   UNL     1      31.623  10.827  -4.087  1.00  0.00     0.016 A
ATOM     19  C   UNL     1      32.478   8.637  -2.608  1.00  0.00     0.001 A
ATOM     20  C   UNL     1      32.829  10.913  -3.367  1.00  0.00    -0.022 A
ATOM     21  C   UNL     1      33.249   9.795  -2.635  1.00  0.00     0.006 A
BRANCH  20  22
ATOM     22  C   UNL     1      33.635  12.188  -3.262  1.00  0.00     0.196 C
BRANCH  22  23
ATOM     23  O   UNL     1      34.217  12.451  -1.988  1.00  0.00    -0.373 OA
BRANCH  23  24
ATOM     24  C   UNL     1      35.631  12.580  -2.012  1.00  0.00     0.188 C
ATOM     25  G   UNL     1      36.160  11.946  -0.759  1.00  0.00     0.000 C
ENDBRANCH  23  24
ENDBRANCH  22  23
ENDBRANCH  20  22
ENDBRANCH  12  16
ENDBRANCH   7   9
ENDBRANCH   3   7
BRANCH   1  26
ATOM     26  C   UNL     1      30.672  15.388  -5.804  1.00  0.00     0.200 C
BRANCH  26  27
ATOM     27  O   UNL     1      30.824  16.276  -4.697  1.00  0.00    -0.372 OA
BRANCH  27  28
ATOM     28  C   UNL     1      32.075  16.949  -4.672  1.00  0.00     0.194 C
BRANCH  28  29
ATOM     29  C   UNL     1      32.056  18.232  -5.473  1.00  0.00    -0.021 C
ATOM     30  C   UNL     1      32.809  18.449  -6.575  1.00  0.00     0.005 C
ATOM     31  G   UNL     1      33.766  17.510  -7.249  1.00  0.00     0.000 C
BRANCH  29  32
ATOM     32  C   UNL     1      31.049  19.272  -5.025  1.00  0.00     0.193 C
BRANCH  32  33
ATOM     33  O   UNL     1      31.599  20.253  -4.155  1.00  0.00    -0.377 OA
BRANCH  33  34
ATOM     34  C   UNL     1      31.364  21.594  -4.586  1.00  0.00     0.165 C
ATOM     35  G   UNL     1      32.394  21.947  -5.666  1.00  0.00     0.000 C
ENDBRANCH  33  34
ENDBRANCH  32  33
ENDBRANCH  29  32
ENDBRANCH  28  29
ENDBRANCH  27  28
ENDBRANCH  26  27
ENDBRANCH   1  26
BRANCH   6  36
ATOM     36  O   UNL     1      28.644  17.271  -6.802  1.00  0.00    -0.492 OA
BRANCH  36  37
ATOM     37  C   UNL     1      27.484  18.084  -7.023  1.00  0.00     0.245 C
BRANCH  37  38
ATOM     38  C   UNL     1      27.826  19.576  -6.844  1.00  0.00     0.126 C
BRANCH  38  39
ATOM     39  N   UNL     1      26.975  20.463  -7.651  1.00  0.00    -0.300 NA
ATOM     40  C   UNL     1      26.236  21.430  -6.843  1.00  0.00     0.085 C
ATOM     41  C   UNL     1      25.923  19.739  -8.383  1.00  0.00     0.090 C
ATOM     42  C   UNL     1      25.230  21.991  -7.840  1.00  0.00     0.023 C
ATOM     43  C   UNL     1      25.004  20.867  -8.859  1.00  0.00     0.030 C
ATOM     44  G   UNL     1      25.329  21.320 -10.287  1.00  0.00     0.000 C
ENDBRANCH  38  39
ENDBRANCH  37  38
ENDBRANCH  36  37
ENDBRANCH   6  36
TORSDOF 0
ENDMDL
MODEL 9
REMARK VINA RESULT:      -7.6      1.385      2.804
REMARK SMILES Cc1cnc2nc1-c1cccc(c1)COCC=C1COCc3cc(ccc3OCCN3CC[C@@H](COC1)C3)N2
REMARK SMILES IDX 22 1 23 2 24 3 25 4 26 5 27 6 39 7 5 9 2 10 3 11 7 12 4 13
REMARK SMILES IDX 6 14 1 15 8 16 9 17 13 18 10 19 12 20 11 21 14 22 15 23
REMARK SMILES IDX 16 24 21 26 20 27 19 28 18 29 17 30 37 32 36 33 35 34 28 36
REMARK SMILES IDX 29 37 30 38 31 39 32 40 38 41 33 42 34 43
REMARK H PARENT 39 8
REMARK Flexibility Score:  100.800
ROOT
ATOM      1  C   UNL     1      28.885  16.054  -5.147  1.00  0.00     0.022 A
ATOM      2  C   UNL     1      28.367  14.794  -4.806  1.00  0.00     0.036 A
ATOM      3  C   UNL     1      29.078  13.606  -5.015  1.00  0.00     0.042 A
ATOM      4  C   UNL     1      30.349  13.702  -5.592  1.00  0.00     0.030 A
ATOM      5  C   UNL     1      30.891  14.947  -5.934  1.00  0.00     0.049 A
ATOM      6  C   UNL     1      30.155  16.114  -5.725  1.00  0.00     0.125 A
ENDROOT
BRANCH   3   7
ATOM      7  N   UNL     1      28.544  12.349  -4.708  1.00  0.00    -0.324 N
ATOM      8  H   UNL     1      27.543  12.246  -4.762  1.00  0.00     0.170 HD
BRANCH   7   9
ATOM      9  C   UNL     1      29.158  11.110  -4.541  1.00  0.00     0.227 A
ATOM     10  C   UNL     1      30.368   8.667  -4.426  1.00  0.00    -0.006 A
ATOM     11  C   UNL     1      29.095   8.865  -4.932  1.00  0.00     0.120 A
ATOM     12  C   UNL     1      30.963   9.794  -3.879  1.00  0.00     0.079 A
ATOM     13  N   UNL     1      28.469  10.053  -4.981  1.00  0.00    -0.221 NA
ATOM     14  N   UNL     1      30.368  11.007  -3.972  1.00  0.00    -0.212 NA
ATOM     15  C   UNL     1      30.973   7.303  -4.490  1.00  0.00     0.048 C
BRANCH  12  16
ATOM     16  C   UNL     1      32.266   9.828  -3.161  1.00  0.00     0.001 A
ATOM     17  C   UNL     1      32.651   8.824  -2.256  1.00  0.00     0.010 A
ATOM     18  C   UNL     1      33.148  10.923  -3.310  1.00  0.00     0.016 A
ATOM     19  C   UNL     1      33.874   8.873  -1.583  1.00  0.00     0.001 A
ATOM     20  C   UNL     1      34.380  10.999  -2.634  1.00  0.00    -0.022 A
ATOM     21  C   UNL     1      34.733   9.951  -1.774  1.00  0.00     0.006 A
BRANCH  20  22
ATOM     22  C   UNL     1      35.288  12.206  -2.710  1.00  0.00     0.196 C
BRANCH  22  23
ATOM     23  O   UNL     1      34.664  13.466  -2.481  1.00  0.00    -0.373 OA
BRANCH  23  24
ATOM     24  C   UNL     1      33.253  13.453  -2.647  1.00  0.00     0.188 C
ATOM     25  G   UNL     1      32.794  14.881  -2.693  1.00  0.00     0.000 C
ENDBRANCH  23  24
ENDBRANCH  22  23
ENDBRANCH  20  22
ENDBRANCH  12  16
ENDBRANCH   7   9
ENDBRANCH   3   7
BRANCH   1  26
ATOM     26  C   UNL     1      28.051  17.269  -4.842  1.00  0.00     0.200 C
BRANCH  26  27
ATOM     27  O   UNL     1      27.775  17.962  -6.058  1.00  0.00    -0.372 OA
BRANCH  27  28
ATOM     28  C   UNL     1      26.584  17.533  -6.703  1.00  0.00     0.194 C
BRANCH  28  29
ATOM     29  C   UNL     1      26.712  17.534  -8.210  1.00  0.00    -0.021 C
ATOM     30  C   UNL     1      26.578  18.637  -8.981  1.00  0.00     0.005 C
ATOM     31  G   UNL     1      26.316  20.050  -8.549  1.00  0.00     0.000 C
BRANCH  29  32
ATOM     32  C   UNL     1      27.105  16.213  -8.838  1.00  0.00     0.193 C
BRANCH  32  33
ATOM     33  O   UNL     1      26.590  15.082  -8.145  1.00  0.00    -0.377 OA
BRANCH  33  34
ATOM     34  C   UNL     1      27.397  13.912  -8.281  1.00  0.00     0.165 C
ATOM     35  G   UNL     1      26.631  12.719  -7.699  1.00  0.00     0.000 C
ENDBRANCH  33  34
ENDBRANCH  32  33
ENDBRANCH  29  32
ENDBRANCH  28  29
ENDBRANCH  27  28
ENDBRANCH  26  27
ENDBRANCH   1  26
BRANCH   6  36
ATOM     36  O   UNL     1      30.738  17.313  -6.039  1.00  0.00    -0.492 OA
BRANCH  36  37
ATOM     37  C   UNL     1      32.163  17.169  -6.118  1.00  0.00     0.245 C
BRANCH  37  38
ATOM     38  C   UNL     1      32.865  18.405  -5.524  1.00  0.00     0.126 C
BRANCH  38  39
ATOM     39  N   UNL     1      32.222  19.671  -5.906  1.00  0.00    -0.300 NA
ATOM     40  C   UNL     1      33.162  20.789  -5.967  1.00  0.00     0.085 C
ATOM     41  C   UNL     1      31.209  20.116  -4.936  1.00  0.00     0.090 C
ATOM     42  C   UNL     1      32.235  21.993  -6.064  1.00  0.00     0.023 C
ATOM     43  C   UNL     1      30.939  21.561  -5.366  1.00  0.00     0.030 C
ATOM     44  G   UNL     1      29.726  21.673  -6.297  1.00  0.00     0.000 C
ENDBRANCH  38  39
ENDBRANCH  37  38
ENDBRANCH  36  37
ENDBRANCH   6  36
TORSDOF 0
ENDMDL
