MODEL 1
REMARK VINA RESULT:     -10.6      0.000      0.000
REMARK SMILES Fc1cc2cc(F)c1CN1CCOC[C@@H]1CSCC1(CCNCC1)n1cc(cn1)-c1cnc3cccc-2c3n1
REMARK SMILES IDX 1 1 2 2 3 3 4 4 5 5 6 6 7 7 8 8 9 9 10 10 11 11 15 12 12 13
REMARK SMILES IDX 14 14 13 15 16 16 17 17 18 18 37 20 36 21 38 22 35 23 39 24
REMARK SMILES IDX 33 25 34 26 30 27 32 28 31 29 27 30 26 31 28 32 25 33 29 34
REMARK SMILES IDX 19 35 20 36 24 37 21 38 23 39 22 40
REMARK H PARENT 22 41
REMARK Flexibility Score:   78.900
ROOT
ATOM      1  F   UNL     1      31.022  16.187  -1.635  1.00  0.00    -0.207 F
ATOM      2  C   UNL     1      31.615  15.414  -2.556  1.00  0.00     0.131 A
ATOM      3  C   UNL     1      32.487  14.419  -2.121  1.00  0.00     0.048 A
ATOM      4  C   UNL     1      33.131  13.576  -3.039  1.00  0.00    -0.010 A
ATOM      5  C   UNL     1      32.930  13.823  -4.402  1.00  0.00     0.048 A
ATOM      6  C   UNL     1      32.059  14.835  -4.822  1.00  0.00     0.131 A
ATOM      7  F   UNL     1      31.915  15.020  -6.142  1.00  0.00    -0.207 F
ATOM      8  C   UNL     1      31.344  15.615  -3.910  1.00  0.00     0.038 A
ENDROOT
BRANCH   8   9
ATOM      9  C   UNL     1      30.385  16.709  -4.297  1.00  0.00     0.126 C
BRANCH   9  10
ATOM     10  N   UNL     1      30.726  17.492  -5.493  1.00  0.00    -0.291 NA
ATOM     11  C   UNL     1      31.720  18.531  -5.118  1.00  0.00     0.113 C
ATOM     12  C   UNL     1      29.610  18.102  -6.274  1.00  0.00     0.092 C
ATOM     13  C   UNL     1      31.768  19.702  -6.107  1.00  0.00     0.175 C
ATOM     14  C   UNL     1      29.382  19.588  -5.901  1.00  0.00     0.180 C
ATOM     15  O   UNL     1      30.528  20.418  -6.161  1.00  0.00    -0.378 OA
BRANCH  12  16
ATOM     16  C   UNL     1      28.275  17.340  -6.475  1.00  0.00     0.091 C
BRANCH  16  17
ATOM     17  S   UNL     1      28.257  15.941  -7.660  1.00  0.00    -0.158 SA
BRANCH  17  18
ATOM     18  C   UNL     1      28.505  14.550  -6.468  1.00  0.00     0.100 C
ATOM     19  G   UNL     1      27.543  14.427  -5.232  1.00  0.00     0.000 C
ENDBRANCH  17  18
ENDBRANCH  16  17
ENDBRANCH  12  16
ENDBRANCH   9  10
ENDBRANCH   8   9
BRANCH   4  20
ATOM     20  C   UNL     1      33.917  12.417  -2.561  1.00  0.00     0.010 A
ATOM     21  C   UNL     1      35.164  12.596  -1.945  1.00  0.00     0.011 A
ATOM     22  C   UNL     1      33.404  11.116  -2.717  1.00  0.00     0.097 A
ATOM     23  C   UNL     1      35.877  11.498  -1.475  1.00  0.00     0.003 A
ATOM     24  N   UNL     1      32.223  10.938  -3.338  1.00  0.00    -0.244 NA
ATOM     25  C   UNL     1      34.119   9.999  -2.227  1.00  0.00     0.089 A
ATOM     26  C   UNL     1      35.347  10.213  -1.615  1.00  0.00     0.030 A
ATOM     27  C   UNL     1      31.725   9.690  -3.453  1.00  0.00     0.092 A
ATOM     28  N   UNL     1      33.629   8.744  -2.342  1.00  0.00    -0.252 NA
ATOM     29  C   UNL     1      32.423   8.610  -2.954  1.00  0.00     0.140 A
BRANCH  27  30
ATOM     30  C   UNL     1      30.443   9.608  -4.119  1.00  0.00     0.040 A
ATOM     31  C   UNL     1      30.095   8.557  -4.945  1.00  0.00     0.119 A
ATOM     32  C   UNL     1      29.330  10.461  -4.175  1.00  0.00     0.145 A
ATOM     33  N   UNL     1      28.843   8.808  -5.426  1.00  0.00    -0.265 N
ATOM     34  N   UNL     1      28.363   9.993  -4.971  1.00  0.00    -0.180 NA
BRANCH  33  35
ATOM     35  C   UNL     1      28.028   7.981  -6.357  1.00  0.00     0.074 C
ATOM     36  C   UNL     1      27.997   8.666  -7.749  1.00  0.00     0.047 C
ATOM     37  C   UNL     1      26.577   7.871  -5.779  1.00  0.00     0.047 C
ATOM     38  C   UNL     1      26.786   9.581  -7.901  1.00  0.00     0.083 C
ATOM     39  C   UNL     1      25.540   7.719  -6.888  1.00  0.00     0.083 C
ATOM     40  N   UNL     1      25.527   8.834  -7.829  1.00  0.00    -0.317 NA
ATOM     41  H   UNL     1      24.778   9.485  -7.593  1.00  0.00     0.122 HD
ATOM     42  G   UNL     1      28.579   6.513  -6.458  1.00  0.00     0.000 C
ENDBRANCH  33  35
ENDBRANCH  27  30
ENDBRANCH   4  20
TORSDOF 0
ENDMDL
MODEL 2
REMARK VINA RESULT:     -10.6      0.928      1.230
REMARK SMILES Fc1cc2cc(F)c1CN1CCOC[C@@H]1CSCC1(CCNCC1)n1cc(cn1)-c1cnc3cccc-2c3n1
REMARK SMILES IDX 1 1 2 2 3 3 4 4 5 5 6 6 7 7 8 8 9 9 10 10 11 11 15 12 12 13
REMARK SMILES IDX 14 14 13 15 16 16 17 17 18 18 37 20 36 21 38 22 35 23 39 24
REMARK SMILES IDX 33 25 34 26 30 27 32 28 31 29 27 30 26 31 28 32 25 33 29 34
REMARK SMILES IDX 19 35 20 36 24 37 21 38 23 39 22 40
REMARK H PARENT 22 41
REMARK Flexibility Score:   78.900
ROOT
ATOM      1  F   UNL     1      30.858  16.070  -1.571  1.00  0.00    -0.207 F
ATOM      2  C   UNL     1      31.517  15.348  -2.489  1.00  0.00     0.131 A
ATOM      3  C   UNL     1      32.416  14.381  -2.048  1.00  0.00     0.048 A
ATOM      4  C   UNL     1      33.129  13.591  -2.962  1.00  0.00    -0.010 A
ATOM      5  C   UNL     1      32.965  13.865  -4.325  1.00  0.00     0.048 A
ATOM      6  C   UNL     1      32.065  14.848  -4.751  1.00  0.00     0.131 A
ATOM      7  F   UNL     1      31.959  15.062  -6.071  1.00  0.00    -0.207 F
ATOM      8  C   UNL     1      31.285  15.572  -3.847  1.00  0.00     0.038 A
ENDROOT
BRANCH   8   9
ATOM      9  C   UNL     1      30.292  16.633  -4.240  1.00  0.00     0.126 C
BRANCH   9  10
ATOM     10  N   UNL     1      30.686  17.531  -5.335  1.00  0.00    -0.291 NA
ATOM     11  C   UNL     1      31.047  18.854  -4.763  1.00  0.00     0.113 C
ATOM     12  C   UNL     1      29.741  17.703  -6.478  1.00  0.00     0.092 C
ATOM     13  C   UNL     1      30.976  19.992  -5.788  1.00  0.00     0.175 C
ATOM     14  C   UNL     1      28.873  18.977  -6.328  1.00  0.00     0.180 C
ATOM     15  O   UNL     1      29.649  20.188  -6.291  1.00  0.00    -0.378 OA
BRANCH  12  16
ATOM     16  C   UNL     1      28.924  16.500  -7.016  1.00  0.00     0.091 C
BRANCH  16  17
ATOM     17  S   UNL     1      27.095  16.616  -6.963  1.00  0.00    -0.158 SA
BRANCH  17  18
ATOM     18  C   UNL     1      26.721  14.949  -6.256  1.00  0.00     0.100 C
ATOM     19  G   UNL     1      26.252  14.846  -4.760  1.00  0.00     0.000 C
ENDBRANCH  17  18
ENDBRANCH  16  17
ENDBRANCH  12  16
ENDBRANCH   9  10
ENDBRANCH   8   9
BRANCH   4  20
ATOM     20  C   UNL     1      33.949  12.456  -2.485  1.00  0.00     0.010 A
ATOM     21  C   UNL     1      35.184  12.671  -1.858  1.00  0.00     0.011 A
ATOM     22  C   UNL     1      33.479  11.139  -2.653  1.00  0.00     0.097 A
ATOM     23  C   UNL     1      35.929  11.594  -1.389  1.00  0.00     0.003 A
ATOM     24  N   UNL     1      32.310  10.927  -3.284  1.00  0.00    -0.244 NA
ATOM     25  C   UNL     1      34.227  10.043  -2.163  1.00  0.00     0.089 A
ATOM     26  C   UNL     1      35.442  10.293  -1.541  1.00  0.00     0.030 A
ATOM     27  C   UNL     1      31.853   9.664  -3.409  1.00  0.00     0.092 A
ATOM     28  N   UNL     1      33.779   8.773  -2.290  1.00  0.00    -0.252 NA
ATOM     29  C   UNL     1      32.582   8.604  -2.911  1.00  0.00     0.140 A
BRANCH  27  30
ATOM     30  C   UNL     1      30.580   9.545  -4.086  1.00  0.00     0.040 A
ATOM     31  C   UNL     1      30.263   8.476  -4.902  1.00  0.00     0.119 A
ATOM     32  C   UNL     1      29.447  10.372  -4.162  1.00  0.00     0.145 A
ATOM     33  N   UNL     1      29.010   8.692  -5.397  1.00  0.00    -0.265 N
ATOM     34  N   UNL     1      28.499   9.871  -4.960  1.00  0.00    -0.180 NA
BRANCH  33  35
ATOM     35  C   UNL     1      28.223   7.836  -6.325  1.00  0.00     0.074 C
ATOM     36  C   UNL     1      26.721   8.208  -6.208  1.00  0.00     0.047 C
ATOM     37  C   UNL     1      28.438   6.338  -5.919  1.00  0.00     0.047 C
ATOM     38  C   UNL     1      26.000   7.333  -5.188  1.00  0.00     0.083 C
ATOM     39  C   UNL     1      27.220   5.484  -6.255  1.00  0.00     0.083 C
ATOM     40  N   UNL     1      25.999   5.922  -5.585  1.00  0.00    -0.317 NA
ATOM     41  H   UNL     1      25.829   5.353  -4.756  1.00  0.00     0.122 HD
ATOM     42  G   UNL     1      28.729   7.971  -7.806  1.00  0.00     0.000 C
ENDBRANCH  33  35
ENDBRANCH  27  30
ENDBRANCH   4  20
TORSDOF 0
ENDMDL
MODEL 3
REMARK VINA RESULT:     -10.5      1.012      1.618
REMARK SMILES Fc1cc2cc(F)c1CN1CCOC[C@@H]1CSCC1(CCNCC1)n1cc(cn1)-c1cnc3cccc-2c3n1
REMARK SMILES IDX 1 1 2 2 3 3 4 4 5 5 6 6 7 7 8 8 9 9 10 10 11 11 15 12 12 13
REMARK SMILES IDX 14 14 13 15 16 16 17 17 18 18 37 20 36 21 38 22 35 23 39 24
REMARK SMILES IDX 33 25 34 26 30 27 32 28 31 29 27 30 26 31 28 32 25 33 29 34
REMARK SMILES IDX 19 35 20 36 24 37 21 38 23 39 22 40
REMARK H PARENT 22 41
REMARK Flexibility Score:   78.900
ROOT
ATOM      1  F   UNL     1      30.916  16.162  -1.565  1.00  0.00    -0.207 F
ATOM      2  C   UNL     1      31.502  15.397  -2.497  1.00  0.00     0.131 A
ATOM      3  C   UNL     1      32.405  14.422  -2.079  1.00  0.00     0.048 A
ATOM      4  C   UNL     1      33.043  13.587  -3.009  1.00  0.00    -0.010 A
ATOM      5  C   UNL     1      32.802  13.822  -4.367  1.00  0.00     0.048 A
ATOM      6  C   UNL     1      31.900  14.814  -4.771  1.00  0.00     0.131 A
ATOM      7  F   UNL     1      31.719  14.989  -6.088  1.00  0.00    -0.207 F
ATOM      8  C   UNL     1      31.193  15.584  -3.845  1.00  0.00     0.038 A
ENDROOT
BRANCH   8   9
ATOM      9  C   UNL     1      30.202  16.656  -4.212  1.00  0.00     0.126 C
BRANCH   9  10
ATOM     10  N   UNL     1      30.517  17.467  -5.397  1.00  0.00    -0.291 NA
ATOM     11  C   UNL     1      30.876  18.840  -4.957  1.00  0.00     0.113 C
ATOM     12  C   UNL     1      29.510  17.523  -6.498  1.00  0.00     0.092 C
ATOM     13  C   UNL     1      30.724  19.887  -6.066  1.00  0.00     0.175 C
ATOM     14  C   UNL     1      28.621  18.789  -6.408  1.00  0.00     0.180 C
ATOM     15  O   UNL     1      29.368  20.013  -6.512  1.00  0.00    -0.378 OA
BRANCH  12  16
ATOM     16  C   UNL     1      28.695  16.264  -6.891  1.00  0.00     0.091 C
BRANCH  16  17
ATOM     17  S   UNL     1      26.919  16.220  -6.440  1.00  0.00    -0.158 SA
BRANCH  17  18
ATOM     18  C   UNL     1      27.002  14.991  -5.061  1.00  0.00     0.100 C
ATOM     19  G   UNL     1      27.261  13.480  -5.404  1.00  0.00     0.000 C
ENDBRANCH  17  18
ENDBRANCH  16  17
ENDBRANCH  12  16
ENDBRANCH   9  10
ENDBRANCH   8   9
BRANCH   4  20
ATOM     20  C   UNL     1      33.864  12.447  -2.545  1.00  0.00     0.010 A
ATOM     21  C   UNL     1      35.103  12.657  -1.923  1.00  0.00     0.011 A
ATOM     22  C   UNL     1      33.392  11.132  -2.720  1.00  0.00     0.097 A
ATOM     23  C   UNL     1      35.849  11.576  -1.466  1.00  0.00     0.003 A
ATOM     24  N   UNL     1      32.219  10.926  -3.346  1.00  0.00    -0.244 NA
ATOM     25  C   UNL     1      34.142  10.032  -2.243  1.00  0.00     0.089 A
ATOM     26  C   UNL     1      35.361  10.276  -1.626  1.00  0.00     0.030 A
ATOM     27  C   UNL     1      31.761   9.664  -3.479  1.00  0.00     0.092 A
ATOM     28  N   UNL     1      33.692   8.764  -2.377  1.00  0.00    -0.252 NA
ATOM     29  C   UNL     1      32.492   8.600  -2.993  1.00  0.00     0.140 A
BRANCH  27  30
ATOM     30  C   UNL     1      30.484   9.551  -4.150  1.00  0.00     0.040 A
ATOM     31  C   UNL     1      30.122   8.441  -4.888  1.00  0.00     0.119 A
ATOM     32  C   UNL     1      29.388  10.418  -4.289  1.00  0.00     0.145 A
ATOM     33  N   UNL     1      28.880   8.674  -5.402  1.00  0.00    -0.265 N
ATOM     34  N   UNL     1      28.419   9.902  -5.052  1.00  0.00    -0.180 NA
BRANCH  33  35
ATOM     35  C   UNL     1      28.057   7.788  -6.268  1.00  0.00     0.074 C
ATOM     36  C   UNL     1      27.619   6.544  -5.451  1.00  0.00     0.047 C
ATOM     37  C   UNL     1      28.927   7.348  -7.494  1.00  0.00     0.047 C
ATOM     38  C   UNL     1      28.596   5.384  -5.622  1.00  0.00     0.083 C
ATOM     39  C   UNL     1      28.518   5.971  -8.008  1.00  0.00     0.083 C
ATOM     40  N   UNL     1      28.646   4.915  -7.009  1.00  0.00    -0.317 NA
ATOM     41  H   UNL     1      29.519   4.405  -7.146  1.00  0.00     0.122 HD
ATOM     42  G   UNL     1      26.814   8.548  -6.857  1.00  0.00     0.000 C
ENDBRANCH  33  35
ENDBRANCH  27  30
ENDBRANCH   4  20
TORSDOF 0
ENDMDL
MODEL 4
REMARK VINA RESULT:     -10.4      0.866      1.175
REMARK SMILES Fc1cc2cc(F)c1CN1CCOC[C@@H]1CSCC1(CCNCC1)n1cc(cn1)-c1cnc3cccc-2c3n1
REMARK SMILES IDX 1 1 2 2 3 3 4 4 5 5 6 6 7 7 8 8 9 9 10 10 11 11 15 12 12 13
REMARK SMILES IDX 14 14 13 15 16 16 17 17 18 18 37 20 36 21 38 22 35 23 39 24
REMARK SMILES IDX 33 25 34 26 30 27 32 28 31 29 27 30 26 31 28 32 25 33 29 34
REMARK SMILES IDX 19 35 20 36 24 37 21 38 23 39 22 40
REMARK H PARENT 22 41
REMARK Flexibility Score:   78.900
ROOT
ATOM      1  F   UNL     1      30.685  15.925  -1.470  1.00  0.00    -0.207 F
ATOM      2  C   UNL     1      31.460  15.342  -2.396  1.00  0.00     0.131 A
ATOM      3  C   UNL     1      32.288  14.296  -1.999  1.00  0.00     0.048 A
ATOM      4  C   UNL     1      33.117  13.643  -2.924  1.00  0.00    -0.010 A
ATOM      5  C   UNL     1      33.140  14.133  -4.235  1.00  0.00     0.048 A
ATOM      6  C   UNL     1      32.310  15.194  -4.615  1.00  0.00     0.131 A
ATOM      7  F   UNL     1      32.384  15.616  -5.885  1.00  0.00    -0.207 F
ATOM      8  C   UNL     1      31.416  15.785  -3.718  1.00  0.00     0.038 A
ENDROOT
BRANCH   8   9
ATOM      9  C   UNL     1      30.489  16.919  -4.066  1.00  0.00     0.126 C
BRANCH   9  10
ATOM     10  N   UNL     1      30.877  17.762  -5.205  1.00  0.00    -0.291 NA
ATOM     11  C   UNL     1      31.193  19.126  -4.707  1.00  0.00     0.113 C
ATOM     12  C   UNL     1      29.948  17.840  -6.370  1.00  0.00     0.092 C
ATOM     13  C   UNL     1      31.108  20.199  -5.797  1.00  0.00     0.175 C
ATOM     14  C   UNL     1      29.043  19.096  -6.310  1.00  0.00     0.180 C
ATOM     15  O   UNL     1      29.785  20.328  -6.332  1.00  0.00    -0.378 OA
BRANCH  12  16
ATOM     16  C   UNL     1      29.173  16.585  -6.850  1.00  0.00     0.091 C
BRANCH  16  17
ATOM     17  S   UNL     1      27.357  16.726  -7.051  1.00  0.00    -0.158 SA
BRANCH  17  18
ATOM     18  C   UNL     1      26.839  16.258  -5.340  1.00  0.00     0.100 C
ATOM     19  G   UNL     1      26.356  14.788  -5.067  1.00  0.00     0.000 C
ENDBRANCH  17  18
ENDBRANCH  16  17
ENDBRANCH  12  16
ENDBRANCH   9  10
ENDBRANCH   8   9
BRANCH   4  20
ATOM     20  C   UNL     1      33.860  12.426  -2.530  1.00  0.00     0.010 A
ATOM     21  C   UNL     1      35.121  12.516  -1.924  1.00  0.00     0.011 A
ATOM     22  C   UNL     1      33.291  11.158  -2.757  1.00  0.00     0.097 A
ATOM     23  C   UNL     1      35.794  11.363  -1.532  1.00  0.00     0.003 A
ATOM     24  N   UNL     1      32.096  11.068  -3.368  1.00  0.00    -0.244 NA
ATOM     25  C   UNL     1      33.966   9.986  -2.346  1.00  0.00     0.089 A
ATOM     26  C   UNL     1      35.210  10.112  -1.742  1.00  0.00     0.030 A
ATOM     27  C   UNL     1      31.544   9.850  -3.550  1.00  0.00     0.092 A
ATOM     28  N   UNL     1      33.423   8.761  -2.530  1.00  0.00    -0.252 NA
ATOM     29  C   UNL     1      32.204   8.714  -3.129  1.00  0.00     0.140 A
BRANCH  27  30
ATOM     30  C   UNL     1      30.252   9.861  -4.200  1.00  0.00     0.040 A
ATOM     31  C   UNL     1      29.843   8.869  -5.070  1.00  0.00     0.119 A
ATOM     32  C   UNL     1      29.180  10.767  -4.198  1.00  0.00     0.145 A
ATOM     33  N   UNL     1      28.599   9.202  -5.520  1.00  0.00    -0.265 N
ATOM     34  N   UNL     1      28.182  10.384  -5.000  1.00  0.00    -0.180 NA
BRANCH  33  35
ATOM     35  C   UNL     1      27.734   8.461  -6.477  1.00  0.00     0.074 C
ATOM     36  C   UNL     1      28.599   7.434  -7.254  1.00  0.00     0.047 C
ATOM     37  C   UNL     1      27.100   9.492  -7.471  1.00  0.00     0.047 C
ATOM     38  C   UNL     1      29.123   8.014  -8.564  1.00  0.00     0.083 C
ATOM     39  C   UNL     1      26.832   8.865  -8.836  1.00  0.00     0.083 C
ATOM     40  N   UNL     1      28.033   8.348  -9.485  1.00  0.00    -0.317 NA
ATOM     41  H   UNL     1      28.381   9.022 -10.168  1.00  0.00     0.122 HD
ATOM     42  G   UNL     1      26.535   7.756  -5.745  1.00  0.00     0.000 C
ENDBRANCH  33  35
ENDBRANCH  27  30
ENDBRANCH   4  20
TORSDOF 0
ENDMDL
MODEL 5
REMARK VINA RESULT:     -10.4      1.139      1.681
REMARK SMILES Fc1cc2cc(F)c1CN1CCOC[C@@H]1CSCC1(CCNCC1)n1cc(cn1)-c1cnc3cccc-2c3n1
REMARK SMILES IDX 1 1 2 2 3 3 4 4 5 5 6 6 7 7 8 8 9 9 10 10 11 11 15 12 12 13
REMARK SMILES IDX 14 14 13 15 16 16 17 17 18 18 37 20 36 21 38 22 35 23 39 24
REMARK SMILES IDX 33 25 34 26 30 27 32 28 31 29 27 30 26 31 28 32 25 33 29 34
REMARK SMILES IDX 19 35 20 36 24 37 21 38 23 39 22 40
REMARK H PARENT 22 41
REMARK Flexibility Score:   78.900
ROOT
ATOM      1  F   UNL     1      30.985  16.110  -1.894  1.00  0.00    -0.207 F
ATOM      2  C   UNL     1      31.606  15.292  -2.755  1.00  0.00     0.131 A
ATOM      3  C   UNL     1      32.480  14.335  -2.244  1.00  0.00     0.048 A
ATOM      4  C   UNL     1      33.153  13.446  -3.096  1.00  0.00    -0.010 A
ATOM      5  C   UNL     1      32.978  13.611  -4.475  1.00  0.00     0.048 A
ATOM      6  C   UNL     1      32.106  14.585  -4.973  1.00  0.00     0.131 A
ATOM      7  F   UNL     1      31.988  14.690  -6.304  1.00  0.00    -0.207 F
ATOM      8  C   UNL     1      31.363  15.409  -4.124  1.00  0.00     0.038 A
ENDROOT
BRANCH   8   9
ATOM      9  C   UNL     1      30.400  16.466  -4.594  1.00  0.00     0.126 C
BRANCH   9  10
ATOM     10  N   UNL     1      30.949  17.518  -5.461  1.00  0.00    -0.291 NA
ATOM     11  C   UNL     1      32.346  17.805  -5.040  1.00  0.00     0.113 C
ATOM     12  C   UNL     1      30.179  18.790  -5.597  1.00  0.00     0.092 C
ATOM     13  C   UNL     1      32.840  19.183  -5.495  1.00  0.00     0.175 C
ATOM     14  C   UNL     1      30.712  19.897  -4.653  1.00  0.00     0.180 C
ATOM     15  O   UNL     1      32.081  20.251  -4.914  1.00  0.00    -0.378 OA
BRANCH  12  16
ATOM     16  C   UNL     1      28.630  18.774  -5.661  1.00  0.00     0.091 C
BRANCH  16  17
ATOM     17  S   UNL     1      27.838  17.714  -6.930  1.00  0.00    -0.158 SA
BRANCH  17  18
ATOM     18  C   UNL     1      26.871  16.602  -5.814  1.00  0.00     0.100 C
ATOM     19  G   UNL     1      26.516  15.153  -6.307  1.00  0.00     0.000 C
ENDBRANCH  17  18
ENDBRANCH  16  17
ENDBRANCH  12  16
ENDBRANCH   9  10
ENDBRANCH   8   9
BRANCH   4  20
ATOM     20  C   UNL     1      33.941  12.328  -2.534  1.00  0.00     0.010 A
ATOM     21  C   UNL     1      35.143  12.564  -1.852  1.00  0.00     0.011 A
ATOM     22  C   UNL     1      33.474  11.007  -2.675  1.00  0.00     0.097 A
ATOM     23  C   UNL     1      35.857  11.503  -1.304  1.00  0.00     0.003 A
ATOM     24  N   UNL     1      32.338  10.775  -3.357  1.00  0.00    -0.244 NA
ATOM     25  C   UNL     1      34.190   9.929  -2.106  1.00  0.00     0.089 A
ATOM     26  C   UNL     1      35.373  10.199  -1.432  1.00  0.00     0.030 A
ATOM     27  C   UNL     1      31.881   9.509  -3.458  1.00  0.00     0.092 A
ATOM     28  N   UNL     1      33.743   8.657  -2.207  1.00  0.00    -0.252 NA
ATOM     29  C   UNL     1      32.579   8.468  -2.883  1.00  0.00     0.140 A
BRANCH  27  30
ATOM     30  C   UNL     1      30.645   9.368  -4.195  1.00  0.00     0.040 A
ATOM     31  C   UNL     1      30.215   8.161  -4.712  1.00  0.00     0.119 A
ATOM     32  C   UNL     1      29.657  10.278  -4.604  1.00  0.00     0.145 A
ATOM     33  N   UNL     1      29.039   8.387  -5.366  1.00  0.00    -0.265 N
ATOM     34  N   UNL     1      28.689   9.698  -5.321  1.00  0.00    -0.180 NA
BRANCH  33  35
ATOM     35  C   UNL     1      28.184   7.411  -6.093  1.00  0.00     0.074 C
ATOM     36  C   UNL     1      28.676   5.973  -5.781  1.00  0.00     0.047 C
ATOM     37  C   UNL     1      28.300   7.699  -7.628  1.00  0.00     0.047 C
ATOM     38  C   UNL     1      29.682   5.484  -6.818  1.00  0.00     0.083 C
ATOM     39  C   UNL     1      28.109   6.430  -8.453  1.00  0.00     0.083 C
ATOM     40  N   UNL     1      29.084   5.387  -8.152  1.00  0.00    -0.317 NA
ATOM     41  H   UNL     1      29.834   5.396  -8.844  1.00  0.00     0.122 HD
ATOM     42  G   UNL     1      26.666   7.586  -5.723  1.00  0.00     0.000 C
ENDBRANCH  33  35
ENDBRANCH  27  30
ENDBRANCH   4  20
TORSDOF 0
ENDMDL
MODEL 6
REMARK VINA RESULT:     -10.3      1.160      1.762
REMARK SMILES Fc1cc2cc(F)c1CN1CCOC[C@@H]1CSCC1(CCNCC1)n1cc(cn1)-c1cnc3cccc-2c3n1
REMARK SMILES IDX 1 1 2 2 3 3 4 4 5 5 6 6 7 7 8 8 9 9 10 10 11 11 15 12 12 13
REMARK SMILES IDX 14 14 13 15 16 16 17 17 18 18 37 20 36 21 38 22 35 23 39 24
REMARK SMILES IDX 33 25 34 26 30 27 32 28 31 29 27 30 26 31 28 32 25 33 29 34
REMARK SMILES IDX 19 35 20 36 24 37 21 38 23 39 22 40
REMARK H PARENT 22 41
REMARK Flexibility Score:   78.900
ROOT
ATOM      1  F   UNL     1      31.037  16.140  -1.640  1.00  0.00    -0.207 F
ATOM      2  C   UNL     1      31.616  15.343  -2.549  1.00  0.00     0.131 A
ATOM      3  C   UNL     1      32.516  14.378  -2.104  1.00  0.00     0.048 A
ATOM      4  C   UNL     1      33.147  13.511  -3.008  1.00  0.00    -0.010 A
ATOM      5  C   UNL     1      32.904  13.706  -4.373  1.00  0.00     0.048 A
ATOM      6  C   UNL     1      32.006  14.688  -4.804  1.00  0.00     0.131 A
ATOM      7  F   UNL     1      31.822  14.823  -6.126  1.00  0.00    -0.207 F
ATOM      8  C   UNL     1      31.305  15.491  -3.901  1.00  0.00     0.038 A
ENDROOT
BRANCH   8   9
ATOM      9  C   UNL     1      30.318  16.556  -4.299  1.00  0.00     0.126 C
BRANCH   9  10
ATOM     10  N   UNL     1      30.699  17.419  -5.425  1.00  0.00    -0.291 NA
ATOM     11  C   UNL     1      31.087  18.753  -4.896  1.00  0.00     0.113 C
ATOM     12  C   UNL     1      29.733  17.572  -6.552  1.00  0.00     0.092 C
ATOM     13  C   UNL     1      31.007  19.864  -5.949  1.00  0.00     0.175 C
ATOM     14  C   UNL     1      28.882  18.860  -6.420  1.00  0.00     0.180 C
ATOM     15  O   UNL     1      29.672  20.062  -6.430  1.00  0.00    -0.378 OA
BRANCH  12  16
ATOM     16  C   UNL     1      28.892  16.365  -7.042  1.00  0.00     0.091 C
BRANCH  16  17
ATOM     17  S   UNL     1      27.087  16.392  -6.719  1.00  0.00    -0.158 SA
BRANCH  17  18
ATOM     18  C   UNL     1      26.480  16.240  -8.458  1.00  0.00     0.100 C
ATOM     19  G   UNL     1      27.507  15.887  -9.594  1.00  0.00     0.000 C
ENDBRANCH  17  18
ENDBRANCH  16  17
ENDBRANCH  12  16
ENDBRANCH   9  10
ENDBRANCH   8   9
BRANCH   4  20
ATOM     20  C   UNL     1      33.964  12.382  -2.512  1.00  0.00     0.010 A
ATOM     21  C   UNL     1      35.197  12.606  -1.883  1.00  0.00     0.011 A
ATOM     22  C   UNL     1      33.495  11.064  -2.662  1.00  0.00     0.097 A
ATOM     23  C   UNL     1      35.940  11.536  -1.396  1.00  0.00     0.003 A
ATOM     24  N   UNL     1      32.328  10.843  -3.294  1.00  0.00    -0.244 NA
ATOM     25  C   UNL     1      34.240   9.975  -2.153  1.00  0.00     0.089 A
ATOM     26  C   UNL     1      35.453  10.233  -1.531  1.00  0.00     0.030 A
ATOM     27  C   UNL     1      31.870   9.579  -3.403  1.00  0.00     0.092 A
ATOM     28  N   UNL     1      33.791   8.703  -2.263  1.00  0.00    -0.252 NA
ATOM     29  C   UNL     1      32.597   8.526  -2.887  1.00  0.00     0.140 A
BRANCH  27  30
ATOM     30  C   UNL     1      30.600   9.450  -4.083  1.00  0.00     0.040 A
ATOM     31  C   UNL     1      30.238   8.318  -4.787  1.00  0.00     0.119 A
ATOM     32  C   UNL     1      29.511  10.318  -4.263  1.00  0.00     0.145 A
ATOM     33  N   UNL     1      29.003   8.541  -5.321  1.00  0.00    -0.265 N
ATOM     34  N   UNL     1      28.547   9.783  -5.018  1.00  0.00    -0.180 NA
BRANCH  33  35
ATOM     35  C   UNL     1      28.184   7.630  -6.166  1.00  0.00     0.074 C
ATOM     36  C   UNL     1      28.473   6.161  -5.757  1.00  0.00     0.047 C
ATOM     37  C   UNL     1      28.576   7.859  -7.665  1.00  0.00     0.047 C
ATOM     38  C   UNL     1      29.579   5.546  -6.608  1.00  0.00     0.083 C
ATOM     39  C   UNL     1      28.395   6.590  -8.492  1.00  0.00     0.083 C
ATOM     40  N   UNL     1      29.200   5.467  -8.021  1.00  0.00    -0.317 NA
ATOM     41  H   UNL     1      30.049   5.383  -8.580  1.00  0.00     0.122 HD
ATOM     42  G   UNL     1      26.652   7.961  -6.053  1.00  0.00     0.000 C
ENDBRANCH  33  35
ENDBRANCH  27  30
ENDBRANCH   4  20
TORSDOF 0
ENDMDL
MODEL 7
REMARK VINA RESULT:     -10.2      1.868      3.208
REMARK SMILES Fc1cc2cc(F)c1CN1CCOC[C@@H]1CSCC1(CCNCC1)n1cc(cn1)-c1cnc3cccc-2c3n1
REMARK SMILES IDX 1 1 2 2 3 3 4 4 5 5 6 6 7 7 8 8 9 9 10 10 11 11 15 12 12 13
REMARK SMILES IDX 14 14 13 15 16 16 17 17 18 18 37 20 36 21 38 22 35 23 39 24
REMARK SMILES IDX 33 25 34 26 30 27 32 28 31 29 27 30 26 31 28 32 25 33 29 34
REMARK SMILES IDX 19 35 20 36 24 37 21 38 23 39 22 40
REMARK H PARENT 22 41
REMARK Flexibility Score:   78.900
ROOT
ATOM      1  F   UNL     1      30.274  13.386  -6.027  1.00  0.00    -0.207 F
ATOM      2  C   UNL     1      31.217  13.864  -5.202  1.00  0.00     0.131 A
ATOM      3  C   UNL     1      31.930  12.959  -4.420  1.00  0.00     0.048 A
ATOM      4  C   UNL     1      32.933  13.400  -3.543  1.00  0.00    -0.010 A
ATOM      5  C   UNL     1      33.131  14.781  -3.424  1.00  0.00     0.048 A
ATOM      6  C   UNL     1      32.398  15.677  -4.209  1.00  0.00     0.131 A
ATOM      7  F   UNL     1      32.636  16.986  -4.042  1.00  0.00    -0.207 F
ATOM      8  C   UNL     1      31.464  15.236  -5.150  1.00  0.00     0.038 A
ENDROOT
BRANCH   8   9
ATOM      9  C   UNL     1      30.652  16.147  -6.032  1.00  0.00     0.126 C
BRANCH   9  10
ATOM     10  N   UNL     1      29.554  16.881  -5.388  1.00  0.00    -0.291 NA
ATOM     11  C   UNL     1      28.314  16.068  -5.484  1.00  0.00     0.113 C
ATOM     12  C   UNL     1      29.290  18.281  -5.833  1.00  0.00     0.092 C
ATOM     13  C   UNL     1      27.036  16.900  -5.327  1.00  0.00     0.175 C
ATOM     14  C   UNL     1      28.146  18.355  -6.875  1.00  0.00     0.180 C
ATOM     15  O   UNL     1      26.889  17.872  -6.370  1.00  0.00    -0.378 OA
BRANCH  12  16
ATOM     16  C   UNL     1      30.461  19.235  -6.183  1.00  0.00     0.091 C
BRANCH  16  17
ATOM     17  S   UNL     1      31.333  20.063  -4.799  1.00  0.00    -0.158 SA
BRANCH  17  18
ATOM     18  C   UNL     1      32.309  21.296  -5.770  1.00  0.00     0.100 C
ATOM     19  G   UNL     1      33.735  21.711  -5.257  1.00  0.00     0.000 C
ENDBRANCH  17  18
ENDBRANCH  16  17
ENDBRANCH  12  16
ENDBRANCH   9  10
ENDBRANCH   8   9
BRANCH   4  20
ATOM     20  C   UNL     1      33.798  12.422  -2.848  1.00  0.00     0.010 A
ATOM     21  C   UNL     1      34.961  12.833  -2.181  1.00  0.00     0.011 A
ATOM     22  C   UNL     1      33.445  11.059  -2.845  1.00  0.00     0.097 A
ATOM     23  C   UNL     1      35.747  11.904  -1.508  1.00  0.00     0.003 A
ATOM     24  N   UNL     1      32.347  10.657  -3.512  1.00  0.00    -0.244 NA
ATOM     25  C   UNL     1      34.234  10.115  -2.148  1.00  0.00     0.089 A
ATOM     26  C   UNL     1      35.375  10.557  -1.494  1.00  0.00     0.030 A
ATOM     27  C   UNL     1      31.999   9.354  -3.475  1.00  0.00     0.092 A
ATOM     28  N   UNL     1      33.895   8.806  -2.111  1.00  0.00    -0.252 NA
ATOM     29  C   UNL     1      32.766   8.446  -2.777  1.00  0.00     0.140 A
BRANCH  27  30
ATOM     30  C   UNL     1      30.795   9.028  -4.208  1.00  0.00     0.040 A
ATOM     31  C   UNL     1      30.490   7.743  -4.613  1.00  0.00     0.119 A
ATOM     32  C   UNL     1      29.734   9.798  -4.710  1.00  0.00     0.145 A
ATOM     33  N   UNL     1      29.311   7.794  -5.297  1.00  0.00    -0.265 N
ATOM     34  N   UNL     1      28.839   9.064  -5.379  1.00  0.00    -0.180 NA
BRANCH  33  35
ATOM     35  C   UNL     1      28.565   6.678  -5.938  1.00  0.00     0.074 C
ATOM     36  C   UNL     1      27.055   7.033  -5.976  1.00  0.00     0.047 C
ATOM     37  C   UNL     1      28.791   5.381  -5.090  1.00  0.00     0.047 C
ATOM     38  C   UNL     1      26.317   6.493  -4.756  1.00  0.00     0.083 C
ATOM     39  C   UNL     1      27.597   4.436  -5.178  1.00  0.00     0.083 C
ATOM     40  N   UNL     1      26.350   5.029  -4.704  1.00  0.00    -0.317 NA
ATOM     41  H   UNL     1      26.163   4.734  -3.745  1.00  0.00     0.122 HD
ATOM     42  G   UNL     1      29.114   6.369  -7.377  1.00  0.00     0.000 C
ENDBRANCH  33  35
ENDBRANCH  27  30
ENDBRANCH   4  20
TORSDOF 0
ENDMDL
MODEL 8
REMARK VINA RESULT:     -10.2      3.307      8.227
REMARK SMILES Fc1cc2cc(F)c1CN1CCOC[C@@H]1CSCC1(CCNCC1)n1cc(cn1)-c1cnc3cccc-2c3n1
REMARK SMILES IDX 1 1 2 2 3 3 4 4 5 5 6 6 7 7 8 8 9 9 10 10 11 11 15 12 12 13
REMARK SMILES IDX 14 14 13 15 16 16 17 17 18 18 37 20 36 21 38 22 35 23 39 24
REMARK SMILES IDX 33 25 34 26 30 27 32 28 31 29 27 30 26 31 28 32 25 33 29 34
REMARK SMILES IDX 19 35 20 36 24 37 21 38 23 39 22 40
REMARK H PARENT 22 41
REMARK Flexibility Score:   78.900
ROOT
ATOM      1  F   UNL     1      30.478   6.289  -4.456  1.00  0.00    -0.207 F
ATOM      2  C   UNL     1      30.713   7.607  -4.391  1.00  0.00     0.131 A
ATOM      3  C   UNL     1      31.708   8.058  -3.527  1.00  0.00     0.048 A
ATOM      4  C   UNL     1      32.004   9.426  -3.422  1.00  0.00    -0.010 A
ATOM      5  C   UNL     1      31.211  10.320  -4.150  1.00  0.00     0.048 A
ATOM      6  C   UNL     1      30.207   9.851  -5.004  1.00  0.00     0.131 A
ATOM      7  F   UNL     1      29.482  10.762  -5.670  1.00  0.00    -0.207 F
ATOM      8  C   UNL     1      29.973   8.485  -5.183  1.00  0.00     0.038 A
ENDROOT
BRANCH   8   9
ATOM      9  C   UNL     1      28.918   7.916  -6.094  1.00  0.00     0.126 C
BRANCH   9  10
ATOM     10  N   UNL     1      27.520   8.096  -5.677  1.00  0.00    -0.291 NA
ATOM     11  C   UNL     1      26.979   6.783  -5.237  1.00  0.00     0.113 C
ATOM     12  C   UNL     1      26.580   8.747  -6.636  1.00  0.00     0.092 C
ATOM     13  C   UNL     1      25.448   6.721  -5.272  1.00  0.00     0.175 C
ATOM     14  C   UNL     1      25.751   7.709  -7.434  1.00  0.00     0.180 C
ATOM     15  O   UNL     1      24.928   6.879  -6.597  1.00  0.00    -0.378 OA
BRANCH  12  16
ATOM     16  C   UNL     1      27.047   9.929  -7.524  1.00  0.00     0.091 C
BRANCH  16  17
ATOM     17  S   UNL     1      26.046  10.334  -9.006  1.00  0.00    -0.158 SA
BRANCH  17  18
ATOM     18  C   UNL     1      25.678  12.106  -8.630  1.00  0.00     0.100 C
ATOM     19  G   UNL     1      26.535  12.845  -7.540  1.00  0.00     0.000 C
ENDBRANCH  17  18
ENDBRANCH  16  17
ENDBRANCH  12  16
ENDBRANCH   9  10
ENDBRANCH   8   9
BRANCH   4  20
ATOM     20  C   UNL     1      33.172   9.877  -2.635  1.00  0.00     0.010 A
ATOM     21  C   UNL     1      33.876   8.986  -1.814  1.00  0.00     0.011 A
ATOM     22  C   UNL     1      33.592  11.219  -2.719  1.00  0.00     0.097 A
ATOM     23  C   UNL     1      34.991   9.419  -1.103  1.00  0.00     0.003 A
ATOM     24  N   UNL     1      32.898  12.084  -3.481  1.00  0.00    -0.244 NA
ATOM     25  C   UNL     1      34.733  11.658  -2.010  1.00  0.00     0.089 A
ATOM     26  C   UNL     1      35.411  10.748  -1.211  1.00  0.00     0.030 A
ATOM     27  C   UNL     1      33.329  13.359  -3.580  1.00  0.00     0.092 A
ATOM     28  N   UNL     1      35.168  12.936  -2.099  1.00  0.00    -0.252 NA
ATOM     29  C   UNL     1      34.454  13.772  -2.898  1.00  0.00     0.140 A
BRANCH  27  30
ATOM     30  C   UNL     1      32.525  14.205  -4.436  1.00  0.00     0.040 A
ATOM     31  C   UNL     1      32.630  15.582  -4.441  1.00  0.00     0.119 A
ATOM     32  C   UNL     1      31.502  13.944  -5.361  1.00  0.00     0.145 A
ATOM     33  N   UNL     1      31.719  16.063  -5.334  1.00  0.00    -0.265 N
ATOM     34  N   UNL     1      31.000  15.060  -5.900  1.00  0.00    -0.180 NA
BRANCH  33  35
ATOM     35  C   UNL     1      31.438  17.478  -5.696  1.00  0.00     0.074 C
ATOM     36  C   UNL     1      32.564  17.995  -6.631  1.00  0.00     0.047 C
ATOM     37  C   UNL     1      31.399  18.328  -4.381  1.00  0.00     0.047 C
ATOM     38  C   UNL     1      33.679  18.680  -5.847  1.00  0.00     0.083 C
ATOM     39  C   UNL     1      31.841  19.766  -4.628  1.00  0.00     0.083 C
ATOM     40  N   UNL     1      33.200  19.877  -5.151  1.00  0.00    -0.317 NA
ATOM     41  H   UNL     1      33.850  20.095  -4.397  1.00  0.00     0.122 HD
ATOM     42  G   UNL     1      30.026  17.633  -6.367  1.00  0.00     0.000 C
ENDBRANCH  33  35
ENDBRANCH  27  30
ENDBRANCH   4  20
TORSDOF 0
ENDMDL
MODEL 9
REMARK VINA RESULT:     -10.2      1.689      2.906
REMARK SMILES Fc1cc2cc(F)c1CN1CCOC[C@@H]1CSCC1(CCNCC1)n1cc(cn1)-c1cnc3cccc-2c3n1
REMARK SMILES IDX 1 1 2 2 3 3 4 4 5 5 6 6 7 7 8 8 9 9 10 10 11 11 15 12 12 13
REMARK SMILES IDX 14 14 13 15 16 16 17 17 18 18 37 20 36 21 38 22 35 23 39 24
REMARK SMILES IDX 33 25 34 26 30 27 32 28 31 29 27 30 26 31 28 32 25 33 29 34
REMARK SMILES IDX 19 35 20 36 24 37 21 38 23 39 22 40
REMARK H PARENT 22 41
REMARK Flexibility Score:   78.900
ROOT
ATOM      1  F   UNL     1      32.437  16.830  -3.841  1.00  0.00    -0.207 F
ATOM      2  C   UNL     1      32.359  15.512  -4.076  1.00  0.00     0.131 A
ATOM      3  C   UNL     1      33.239  14.668  -3.403  1.00  0.00     0.048 A
ATOM      4  C   UNL     1      33.200  13.280  -3.603  1.00  0.00    -0.010 A
ATOM      5  C   UNL     1      32.305  12.786  -4.560  1.00  0.00     0.048 A
ATOM      6  C   UNL     1      31.436  13.649  -5.236  1.00  0.00     0.131 A
ATOM      7  F   UNL     1      30.606  13.110  -6.141  1.00  0.00    -0.207 F
ATOM      8  C   UNL     1      31.408  15.021  -4.970  1.00  0.00     0.038 A
ENDROOT
BRANCH   8   9
ATOM      9  C   UNL     1      30.490  16.000  -5.653  1.00  0.00     0.126 C
BRANCH   9  10
ATOM     10  N   UNL     1      29.228  16.308  -4.966  1.00  0.00    -0.291 NA
ATOM     11  C   UNL     1      28.377  15.090  -4.958  1.00  0.00     0.113 C
ATOM     12  C   UNL     1      28.440  17.485  -5.439  1.00  0.00     0.092 C
ATOM     13  C   UNL     1      26.889  15.396  -4.749  1.00  0.00     0.175 C
ATOM     14  C   UNL     1      27.306  17.074  -6.410  1.00  0.00     0.180 C
ATOM     15  O   UNL     1      26.344  16.187  -5.812  1.00  0.00    -0.378 OA
BRANCH  12  16
ATOM     16  C   UNL     1      29.154  18.784  -5.892  1.00  0.00     0.091 C
BRANCH  16  17
ATOM     17  S   UNL     1      30.518  19.421  -4.846  1.00  0.00    -0.158 SA
BRANCH  17  18
ATOM     18  C   UNL     1      31.884  19.370  -6.089  1.00  0.00     0.100 C
ATOM     19  G   UNL     1      33.356  19.644  -5.613  1.00  0.00     0.000 C
ENDBRANCH  17  18
ENDBRANCH  16  17
ENDBRANCH  12  16
ENDBRANCH   9  10
ENDBRANCH   8   9
BRANCH   4  20
ATOM     20  C   UNL     1      34.019  12.382  -2.760  1.00  0.00     0.010 A
ATOM     21  C   UNL     1      35.119  12.872  -2.042  1.00  0.00     0.011 A
ATOM     22  C   UNL     1      33.684  11.018  -2.666  1.00  0.00     0.097 A
ATOM     23  C   UNL     1      35.861  12.020  -1.230  1.00  0.00     0.003 A
ATOM     24  N   UNL     1      32.648  10.539  -3.379  1.00  0.00    -0.244 NA
ATOM     25  C   UNL     1      34.426  10.153  -1.829  1.00  0.00     0.089 A
ATOM     26  C   UNL     1      35.505  10.672  -1.127  1.00  0.00     0.030 A
ATOM     27  C   UNL     1      32.315   9.237  -3.256  1.00  0.00     0.092 A
ATOM     28  N   UNL     1      34.103   8.846  -1.704  1.00  0.00    -0.252 NA
ATOM     29  C   UNL     1      33.035   8.407  -2.423  1.00  0.00     0.140 A
BRANCH  27  30
ATOM     30  C   UNL     1      31.178   8.825  -4.050  1.00  0.00     0.040 A
ATOM     31  C   UNL     1      30.176   9.696  -4.432  1.00  0.00     0.119 A
ATOM     32  C   UNL     1      30.762   7.588  -4.569  1.00  0.00     0.145 A
ATOM     33  N   UNL     1      29.255   8.981  -5.139  1.00  0.00    -0.265 N
ATOM     34  N   UNL     1      29.596   7.670  -5.218  1.00  0.00    -0.180 NA
BRANCH  33  35
ATOM     35  C   UNL     1      27.991   9.461  -5.760  1.00  0.00     0.074 C
ATOM     36  C   UNL     1      26.794   8.699  -5.130  1.00  0.00     0.047 C
ATOM     37  C   UNL     1      28.058   9.179  -7.299  1.00  0.00     0.047 C
ATOM     38  C   UNL     1      26.427   7.459  -5.938  1.00  0.00     0.083 C
ATOM     39  C   UNL     1      26.671   8.938  -7.887  1.00  0.00     0.083 C
ATOM     40  N   UNL     1      25.974   7.804  -7.289  1.00  0.00    -0.317 NA
ATOM     41  H   UNL     1      26.069   6.980  -7.882  1.00  0.00     0.122 HD
ATOM     42  G   UNL     1      27.823  11.015  -5.600  1.00  0.00     0.000 C
ENDBRANCH  33  35
ENDBRANCH  27  30
ENDBRANCH   4  20
TORSDOF 0
ENDMDL
