MODEL 1
REMARK VINA RESULT:      -8.7      0.000      0.000
REMARK SMILES N#C[C@H]1C[C@H]2COCC3(CC3)c3cnc4[nH]cc(c4n3)C(=O)N[C@H](C3CC3)C(=O)N2C1
REMARK SMILES IDX 12 1 13 2 14 3 15 4 16 5 17 6 18 7 19 8 20 9 21 11 23 12
REMARK SMILES IDX 22 13 24 15 28 16 29 17 30 18 1 19 2 20 3 21 4 22 31 23 5 24
REMARK SMILES IDX 25 26 26 27 27 28 9 29 10 30 11 31 8 32 7 33 6 34
REMARK H PARENT 16 10 23 14
REMARK Flexibility Score:  122.900
ROOT
ATOM      1  C   UNL     1      33.777  11.408  -2.605  1.00  0.00     0.068 A
ATOM      2  C   UNL     1      35.059  11.927  -2.369  1.00  0.00     0.138 A
ATOM      3  N   UNL     1      35.411  13.253  -2.397  1.00  0.00    -0.235 NA
ATOM      4  C   UNL     1      34.350  14.023  -2.719  1.00  0.00     0.156 A
ATOM      5  N   UNL     1      34.318  15.378  -2.911  1.00  0.00    -0.344 N
ATOM      6  C   UNL     1      33.048  15.761  -3.302  1.00  0.00     0.100 A
ATOM      7  C   UNL     1      32.235  14.636  -3.328  1.00  0.00     0.085 A
ATOM      8  C   UNL     1      33.070  13.562  -2.947  1.00  0.00     0.120 A
ATOM      9  N   UNL     1      32.757  12.257  -2.855  1.00  0.00    -0.246 NA
ATOM     10  H   UNL     1      35.121  15.982  -2.818  1.00  0.00     0.168 HD
ENDROOT
BRANCH   7  11
ATOM     11  C   UNL     1      30.833  14.539  -3.733  1.00  0.00     0.255 C
ATOM     12  N   UNL     1      30.605  14.921  -5.037  1.00  0.00    -0.340 N
ATOM     13  O   UNL     1      29.946  14.185  -2.966  1.00  0.00    -0.269 OA
ATOM     14  H   UNL     1      31.415  15.174  -5.598  1.00  0.00     0.164 HD
BRANCH  12  15
ATOM     15  C   UNL     1      29.294  15.114  -5.640  1.00  0.00     0.175 C
BRANCH  15  16
ATOM     16  C   UNL     1      29.437  16.274  -6.690  1.00  0.00     0.245 C
ATOM     17  O   UNL     1      29.031  16.159  -7.849  1.00  0.00    -0.272 OA
BRANCH  16  18
ATOM     18  N   UNL     1      30.167  17.403  -6.335  1.00  0.00    -0.334 N
ATOM     19  N   UNL     1      34.142  19.961  -6.289  1.00  0.00    -0.198 NA
ATOM     20  C   UNL     1      33.184  19.401  -5.950  1.00  0.00     0.067 C
ATOM     21  C   UNL     1      31.983  18.688  -5.523  1.00  0.00     0.114 C
ATOM     22  C   UNL     1      30.735  19.562  -5.528  1.00  0.00     0.048 C
ATOM     23  C   UNL     1      31.610  17.564  -6.485  1.00  0.00     0.138 C
ATOM     24  C   UNL     1      29.586  18.544  -5.587  1.00  0.00     0.112 C
ATOM     25  G   UNL     1      28.271  19.202  -6.093  1.00  0.00     0.000 C
ENDBRANCH  16  18
ENDBRANCH  15  16
BRANCH  15  26
ATOM     26  C   UNL     1      28.785  13.784  -6.155  1.00  0.00     0.021 C
ATOM     27  C   UNL     1      27.702  12.976  -5.481  1.00  0.00     0.006 C
ATOM     28  C   UNL     1      27.440  13.617  -6.820  1.00  0.00     0.006 C
ENDBRANCH  15  26
ENDBRANCH  12  15
ENDBRANCH   7  11
BRANCH   1  29
ATOM     29  C   UNL     1      33.387   9.921  -2.669  1.00  0.00     0.038 C
ATOM     30  C   UNL     1      34.404   8.843  -2.344  1.00  0.00     0.017 C
ATOM     31  C   UNL     1      33.264   9.105  -1.397  1.00  0.00     0.017 C
BRANCH  29  32
ATOM     32  C   UNL     1      32.377   9.681  -3.794  1.00  0.00     0.173 C
BRANCH  32  33
ATOM     33  O   UNL     1      31.310   8.793  -3.469  1.00  0.00    -0.378 OA
BRANCH  33  34
ATOM     34  C   UNL     1      30.479   8.555  -4.621  1.00  0.00     0.185 C
ATOM     35  G   UNL     1      29.773   9.802  -5.227  1.00  0.00     0.000 C
ENDBRANCH  33  34
ENDBRANCH  32  33
ENDBRANCH  29  32
ENDBRANCH   1  29
TORSDOF 1
ENDMDL
MODEL 2
REMARK VINA RESULT:      -8.6      2.367      4.537
REMARK SMILES N#C[C@H]1C[C@H]2COCC3(CC3)c3cnc4[nH]cc(c4n3)C(=O)N[C@H](C3CC3)C(=O)N2C1
REMARK SMILES IDX 12 1 13 2 14 3 15 4 16 5 17 6 18 7 19 8 20 9 21 11 23 12
REMARK SMILES IDX 22 13 24 15 28 16 29 17 30 18 1 19 2 20 3 21 4 22 31 23 5 24
REMARK SMILES IDX 25 26 26 27 27 28 9 29 10 30 11 31 8 32 7 33 6 34
REMARK H PARENT 16 10 23 14
REMARK Flexibility Score:  122.900
ROOT
ATOM      1  C   UNL     1      31.600   9.115  -3.829  1.00  0.00     0.068 A
ATOM      2  C   UNL     1      31.305   7.762  -4.054  1.00  0.00     0.138 A
ATOM      3  N   UNL     1      30.203   7.273  -4.711  1.00  0.00    -0.235 NA
ATOM      4  C   UNL     1      29.394   8.280  -5.101  1.00  0.00     0.156 A
ATOM      5  N   UNL     1      28.176   8.192  -5.720  1.00  0.00    -0.344 N
ATOM      6  C   UNL     1      27.644   9.459  -5.879  1.00  0.00     0.100 A
ATOM      7  C   UNL     1      28.552  10.386  -5.386  1.00  0.00     0.085 A
ATOM      8  C   UNL     1      29.646   9.624  -4.915  1.00  0.00     0.120 A
ATOM      9  N   UNL     1      30.767  10.061  -4.314  1.00  0.00    -0.246 NA
ATOM     10  H   UNL     1      27.732   7.322  -5.975  1.00  0.00     0.168 HD
ENDROOT
BRANCH   7  11
ATOM     11  C   UNL     1      28.406  11.837  -5.288  1.00  0.00     0.255 C
ATOM     12  N   UNL     1      29.517  12.536  -5.709  1.00  0.00    -0.340 N
ATOM     13  O   UNL     1      27.401  12.371  -4.837  1.00  0.00    -0.269 OA
ATOM     14  H   UNL     1      30.290  11.996  -6.091  1.00  0.00     0.164 HD
BRANCH  12  15
ATOM     15  C   UNL     1      29.725  13.966  -5.539  1.00  0.00     0.175 C
BRANCH  15  16
ATOM     16  C   UNL     1      31.266  14.228  -5.699  1.00  0.00     0.245 C
ATOM     17  O   UNL     1      32.070  13.309  -5.877  1.00  0.00    -0.272 OA
BRANCH  16  18
ATOM     18  N   UNL     1      31.744  15.518  -5.495  1.00  0.00    -0.334 N
ATOM     19  N   UNL     1      33.639  19.563  -7.042  1.00  0.00    -0.198 NA
ATOM     20  C   UNL     1      33.440  18.600  -6.427  1.00  0.00     0.067 C
ATOM     21  C   UNL     1      33.195  17.381  -5.658  1.00  0.00     0.114 C
ATOM     22  C   UNL     1      32.258  17.599  -4.476  1.00  0.00     0.048 C
ATOM     23  C   UNL     1      32.463  16.323  -6.477  1.00  0.00     0.138 C
ATOM     24  C   UNL     1      31.734  16.188  -4.172  1.00  0.00     0.112 C
ATOM     25  G   UNL     1      30.415  16.239  -3.349  1.00  0.00     0.000 C
ENDBRANCH  16  18
ENDBRANCH  15  16
BRANCH  15  26
ATOM     26  C   UNL     1      28.803  14.717  -6.476  1.00  0.00     0.021 C
ATOM     27  C   UNL     1      27.745  15.692  -6.018  1.00  0.00     0.006 C
ATOM     28  C   UNL     1      28.951  16.189  -6.775  1.00  0.00     0.006 C
ENDBRANCH  15  26
ENDBRANCH  12  15
ENDBRANCH   7  11
BRANCH   1  29
ATOM     29  C   UNL     1      32.780   9.674  -3.016  1.00  0.00     0.038 C
ATOM     30  C   UNL     1      32.891   9.395  -1.528  1.00  0.00     0.017 C
ATOM     31  C   UNL     1      33.853   8.745  -2.485  1.00  0.00     0.017 C
BRANCH  29  32
ATOM     32  C   UNL     1      33.197  11.045  -3.551  1.00  0.00     0.173 C
BRANCH  32  33
ATOM     33  O   UNL     1      33.149  12.106  -2.601  1.00  0.00    -0.378 OA
BRANCH  33  34
ATOM     34  C   UNL     1      34.406  12.807  -2.558  1.00  0.00     0.185 C
ATOM     35  G   UNL     1      35.546  12.124  -1.750  1.00  0.00     0.000 C
ENDBRANCH  33  34
ENDBRANCH  32  33
ENDBRANCH  29  32
ENDBRANCH   1  29
TORSDOF 1
ENDMDL
MODEL 3
REMARK VINA RESULT:      -8.6      0.923      1.520
REMARK SMILES N#C[C@H]1C[C@H]2COCC3(CC3)c3cnc4[nH]cc(c4n3)C(=O)N[C@H](C3CC3)C(=O)N2C1
REMARK SMILES IDX 12 1 13 2 14 3 15 4 16 5 17 6 18 7 19 8 20 9 21 11 23 12
REMARK SMILES IDX 22 13 24 15 28 16 29 17 30 18 1 19 2 20 3 21 4 22 31 23 5 24
REMARK SMILES IDX 25 26 26 27 27 28 9 29 10 30 11 31 8 32 7 33 6 34
REMARK H PARENT 16 10 23 14
REMARK Flexibility Score:  122.900
ROOT
ATOM      1  C   UNL     1      33.719  11.330  -2.592  1.00  0.00     0.068 A
ATOM      2  C   UNL     1      35.022  11.787  -2.349  1.00  0.00     0.138 A
ATOM      3  N   UNL     1      35.430  13.098  -2.340  1.00  0.00    -0.235 NA
ATOM      4  C   UNL     1      34.401  13.921  -2.633  1.00  0.00     0.156 A
ATOM      5  N   UNL     1      34.425  15.281  -2.784  1.00  0.00    -0.344 N
ATOM      6  C   UNL     1      33.171  15.729  -3.156  1.00  0.00     0.100 A
ATOM      7  C   UNL     1      32.310  14.641  -3.210  1.00  0.00     0.085 A
ATOM      8  C   UNL     1      33.102  13.521  -2.866  1.00  0.00     0.120 A
ATOM      9  N   UNL     1      32.734  12.229  -2.811  1.00  0.00    -0.246 NA
ATOM     10  H   UNL     1      35.254  15.848  -2.679  1.00  0.00     0.168 HD
ENDROOT
BRANCH   7  11
ATOM     11  C   UNL     1      30.904  14.615  -3.608  1.00  0.00     0.255 C
ATOM     12  N   UNL     1      30.700  14.902  -4.940  1.00  0.00    -0.340 N
ATOM     13  O   UNL     1      29.996  14.395  -2.816  1.00  0.00    -0.269 OA
ATOM     14  H   UNL     1      31.525  15.046  -5.519  1.00  0.00     0.164 HD
BRANCH  12  15
ATOM     15  C   UNL     1      29.405  15.141  -5.560  1.00  0.00     0.175 C
BRANCH  15  16
ATOM     16  C   UNL     1      29.589  16.336  -6.564  1.00  0.00     0.245 C
ATOM     17  O   UNL     1      29.186  16.278  -7.728  1.00  0.00    -0.272 OA
BRANCH  16  18
ATOM     18  N   UNL     1      30.351  17.428  -6.162  1.00  0.00    -0.334 N
ATOM     19  N   UNL     1      31.047  21.289  -3.526  1.00  0.00    -0.198 NA
ATOM     20  C   UNL     1      30.967  20.569  -4.432  1.00  0.00     0.067 C
ATOM     21  C   UNL     1      30.857  19.665  -5.574  1.00  0.00     0.114 C
ATOM     22  C   UNL     1      32.160  18.940  -5.890  1.00  0.00     0.048 C
ATOM     23  C   UNL     1      29.890  18.516  -5.305  1.00  0.00     0.138 C
ATOM     24  C   UNL     1      31.701  17.719  -6.701  1.00  0.00     0.112 C
ATOM     25  G   UNL     1      32.783  16.601  -6.702  1.00  0.00     0.000 C
ENDBRANCH  16  18
ENDBRANCH  15  16
BRANCH  15  26
ATOM     26  C   UNL     1      28.883  13.841  -6.134  1.00  0.00     0.021 C
ATOM     27  C   UNL     1      27.995  12.881  -5.378  1.00  0.00     0.006 C
ATOM     28  C   UNL     1      27.448  13.644  -6.558  1.00  0.00     0.006 C
ENDBRANCH  15  26
ENDBRANCH  12  15
ENDBRANCH   7  11
BRANCH   1  29
ATOM     29  C   UNL     1      33.265   9.864  -2.698  1.00  0.00     0.038 C
ATOM     30  C   UNL     1      34.252   8.734  -2.466  1.00  0.00     0.017 C
ATOM     31  C   UNL     1      33.168   9.000  -1.456  1.00  0.00     0.017 C
BRANCH  29  32
ATOM     32  C   UNL     1      32.196   9.711  -3.782  1.00  0.00     0.173 C
BRANCH  32  33
ATOM     33  O   UNL     1      30.863   9.558  -3.300  1.00  0.00    -0.378 OA
BRANCH  33  34
ATOM     34  C   UNL     1      29.911   9.823  -4.346  1.00  0.00     0.185 C
ATOM     35  G   UNL     1      29.836   8.771  -5.490  1.00  0.00     0.000 C
ENDBRANCH  33  34
ENDBRANCH  32  33
ENDBRANCH  29  32
ENDBRANCH   1  29
TORSDOF 1
ENDMDL
MODEL 4
REMARK VINA RESULT:      -8.5      2.173      4.305
REMARK SMILES N#C[C@H]1C[C@H]2COCC3(CC3)c3cnc4[nH]cc(c4n3)C(=O)N[C@H](C3CC3)C(=O)N2C1
REMARK SMILES IDX 12 1 13 2 14 3 15 4 16 5 17 6 18 7 19 8 20 9 21 11 23 12
REMARK SMILES IDX 22 13 24 15 28 16 29 17 30 18 1 19 2 20 3 21 4 22 31 23 5 24
REMARK SMILES IDX 25 26 26 27 27 28 9 29 10 30 11 31 8 32 7 33 6 34
REMARK H PARENT 16 10 23 14
REMARK Flexibility Score:  122.900
ROOT
ATOM      1  C   UNL     1      31.580  10.033  -3.722  1.00  0.00     0.068 A
ATOM      2  C   UNL     1      31.092   8.966  -4.490  1.00  0.00     0.138 A
ATOM      3  N   UNL     1      29.999   9.001  -5.319  1.00  0.00    -0.235 NA
ATOM      4  C   UNL     1      29.410  10.214  -5.282  1.00  0.00     0.156 A
ATOM      5  N   UNL     1      28.264  10.616  -5.915  1.00  0.00    -0.344 N
ATOM      6  C   UNL     1      27.966  11.917  -5.553  1.00  0.00     0.100 A
ATOM      7  C   UNL     1      28.958  12.377  -4.698  1.00  0.00     0.085 A
ATOM      8  C   UNL     1      29.858  11.297  -4.554  1.00  0.00     0.120 A
ATOM      9  N   UNL     1      30.968  11.235  -3.797  1.00  0.00    -0.246 NA
ATOM     10  H   UNL     1      27.712  10.023  -6.516  1.00  0.00     0.168 HD
ENDROOT
BRANCH   7  11
ATOM     11  C   UNL     1      29.042  13.668  -4.017  1.00  0.00     0.255 C
ATOM     12  N   UNL     1      28.793  14.746  -4.838  1.00  0.00    -0.340 N
ATOM     13  O   UNL     1      29.346  13.773  -2.835  1.00  0.00    -0.269 OA
ATOM     14  H   UNL     1      28.524  14.548  -5.799  1.00  0.00     0.164 HD
BRANCH  12  15
ATOM     15  C   UNL     1      29.001  16.141  -4.481  1.00  0.00     0.175 C
BRANCH  15  16
ATOM     16  C   UNL     1      30.496  16.279  -4.018  1.00  0.00     0.245 C
ATOM     17  O   UNL     1      30.828  16.151  -2.836  1.00  0.00    -0.272 OA
BRANCH  16  18
ATOM     18  N   UNL     1      31.443  16.693  -4.949  1.00  0.00    -0.334 N
ATOM     19  N   UNL     1      34.530  19.846  -6.644  1.00  0.00    -0.198 NA
ATOM     20  C   UNL     1      33.661  19.082  -6.567  1.00  0.00     0.067 C
ATOM     21  C   UNL     1      32.560  18.126  -6.467  1.00  0.00     0.114 C
ATOM     22  C   UNL     1      32.987  16.691  -6.751  1.00  0.00     0.048 C
ATOM     23  C   UNL     1      32.005  18.037  -5.049  1.00  0.00     0.138 C
ATOM     24  C   UNL     1      31.884  15.852  -6.087  1.00  0.00     0.112 C
ATOM     25  G   UNL     1      32.362  14.395  -5.825  1.00  0.00     0.000 C
ENDBRANCH  16  18
ENDBRANCH  15  16
BRANCH  15  26
ATOM     26  C   UNL     1      28.558  17.020  -5.631  1.00  0.00     0.021 C
ATOM     27  C   UNL     1      27.157  17.561  -5.790  1.00  0.00     0.006 C
ATOM     28  C   UNL     1      28.298  18.500  -5.487  1.00  0.00     0.006 C
ENDBRANCH  15  26
ENDBRANCH  12  15
ENDBRANCH   7  11
BRANCH   1  29
ATOM     29  C   UNL     1      32.746   9.984  -2.719  1.00  0.00     0.038 C
ATOM     30  C   UNL     1      32.665   9.102  -1.486  1.00  0.00     0.017 C
ATOM     31  C   UNL     1      33.606   8.741  -2.604  1.00  0.00     0.017 C
BRANCH  29  32
ATOM     32  C   UNL     1      33.421  11.353  -2.615  1.00  0.00     0.173 C
BRANCH  32  33
ATOM     33  O   UNL     1      34.774  11.397  -3.060  1.00  0.00    -0.378 OA
BRANCH  33  34
ATOM     34  C   UNL     1      35.591  12.132  -2.130  1.00  0.00     0.185 C
ATOM     35  G   UNL     1      36.053  11.358  -0.861  1.00  0.00     0.000 C
ENDBRANCH  33  34
ENDBRANCH  32  33
ENDBRANCH  29  32
ENDBRANCH   1  29
TORSDOF 1
ENDMDL
MODEL 5
REMARK VINA RESULT:      -8.5      1.911      4.217
REMARK SMILES N#C[C@H]1C[C@H]2COCC3(CC3)c3cnc4[nH]cc(c4n3)C(=O)N[C@H](C3CC3)C(=O)N2C1
REMARK SMILES IDX 12 1 13 2 14 3 15 4 16 5 17 6 18 7 19 8 20 9 21 11 23 12
REMARK SMILES IDX 22 13 24 15 28 16 29 17 30 18 1 19 2 20 3 21 4 22 31 23 5 24
REMARK SMILES IDX 25 26 26 27 27 28 9 29 10 30 11 31 8 32 7 33 6 34
REMARK H PARENT 16 10 23 14
REMARK Flexibility Score:  122.900
ROOT
ATOM      1  C   UNL     1      30.828  10.059  -3.974  1.00  0.00     0.068 A
ATOM      2  C   UNL     1      29.882   9.062  -4.254  1.00  0.00     0.138 A
ATOM      3  N   UNL     1      28.665   9.252  -4.861  1.00  0.00    -0.235 NA
ATOM      4  C   UNL     1      28.467  10.558  -5.137  1.00  0.00     0.156 A
ATOM      5  N   UNL     1      27.355  11.147  -5.676  1.00  0.00    -0.344 N
ATOM      6  C   UNL     1      27.534  12.518  -5.726  1.00  0.00     0.100 A
ATOM      7  C   UNL     1      28.801  12.816  -5.244  1.00  0.00     0.085 A
ATOM      8  C   UNL     1      29.371  11.571  -4.893  1.00  0.00     0.120 A
ATOM      9  N   UNL     1      30.576  11.333  -4.346  1.00  0.00    -0.246 NA
ATOM     10  H   UNL     1      26.523  10.644  -5.948  1.00  0.00     0.168 HD
ENDROOT
BRANCH   7  11
ATOM     11  C   UNL     1      29.414  14.130  -5.055  1.00  0.00     0.255 C
ATOM     12  N   UNL     1      30.581  14.305  -5.767  1.00  0.00    -0.340 N
ATOM     13  O   UNL     1      28.947  14.975  -4.301  1.00  0.00    -0.269 OA
ATOM     14  H   UNL     1      30.869  13.549  -6.384  1.00  0.00     0.164 HD
BRANCH  12  15
ATOM     15  C   UNL     1      31.498  15.425  -5.616  1.00  0.00     0.175 C
BRANCH  15  16
ATOM     16  C   UNL     1      30.856  16.648  -6.364  1.00  0.00     0.245 C
ATOM     17  O   UNL     1      29.953  16.506  -7.193  1.00  0.00    -0.272 OA
BRANCH  16  18
ATOM     18  N   UNL     1      31.420  17.907  -6.183  1.00  0.00    -0.334 N
ATOM     19  N   UNL     1      34.946  21.013  -6.700  1.00  0.00    -0.198 NA
ATOM     20  C   UNL     1      34.108  20.360  -6.235  1.00  0.00     0.067 C
ATOM     21  C   UNL     1      33.058  19.530  -5.647  1.00  0.00     0.114 C
ATOM     22  C   UNL     1      31.691  20.204  -5.652  1.00  0.00     0.048 C
ATOM     23  C   UNL     1      32.810  18.261  -6.456  1.00  0.00     0.138 C
ATOM     24  C   UNL     1      30.713  19.027  -5.518  1.00  0.00     0.112 C
ATOM     25  G   UNL     1      29.285  19.421  -5.992  1.00  0.00     0.000 C
ENDBRANCH  16  18
ENDBRANCH  15  16
BRANCH  15  26
ATOM     26  C   UNL     1      31.816  15.612  -4.147  1.00  0.00     0.021 C
ATOM     27  C   UNL     1      32.507  14.574  -3.295  1.00  0.00     0.006 C
ATOM     28  C   UNL     1      33.212  15.864  -3.631  1.00  0.00     0.006 C
ENDBRANCH  15  26
ENDBRANCH  12  15
ENDBRANCH   7  11
BRANCH   1  29
ATOM     29  C   UNL     1      32.153   9.878  -3.212  1.00  0.00     0.038 C
ATOM     30  C   UNL     1      32.177   9.184  -1.862  1.00  0.00     0.017 C
ATOM     31  C   UNL     1      32.770   8.502  -3.065  1.00  0.00     0.017 C
BRANCH  29  32
ATOM     32  C   UNL     1      33.077  11.073  -3.454  1.00  0.00     0.173 C
BRANCH  32  33
ATOM     33  O   UNL     1      34.447  10.855  -3.126  1.00  0.00    -0.378 OA
BRANCH  33  34
ATOM     34  C   UNL     1      34.962  11.947  -2.341  1.00  0.00     0.185 C
ATOM     35  G   UNL     1      35.919  11.564  -1.176  1.00  0.00     0.000 C
ENDBRANCH  33  34
ENDBRANCH  32  33
ENDBRANCH  29  32
ENDBRANCH   1  29
TORSDOF 1
ENDMDL
MODEL 6
REMARK VINA RESULT:      -8.4      1.786      2.741
REMARK SMILES N#C[C@H]1C[C@H]2COCC3(CC3)c3cnc4[nH]cc(c4n3)C(=O)N[C@H](C3CC3)C(=O)N2C1
REMARK SMILES IDX 12 1 13 2 14 3 15 4 16 5 17 6 18 7 19 8 20 9 21 11 23 12
REMARK SMILES IDX 22 13 24 15 28 16 29 17 30 18 1 19 2 20 3 21 4 22 31 23 5 24
REMARK SMILES IDX 25 26 26 27 27 28 9 29 10 30 11 31 8 32 7 33 6 34
REMARK H PARENT 16 10 23 14
REMARK Flexibility Score:  122.900
ROOT
ATOM      1  C   UNL     1      32.374   9.879  -3.272  1.00  0.00     0.068 A
ATOM      2  C   UNL     1      33.450   9.121  -2.789  1.00  0.00     0.138 A
ATOM      3  N   UNL     1      34.619   9.617  -2.268  1.00  0.00    -0.235 NA
ATOM      4  C   UNL     1      34.624  10.967  -2.306  1.00  0.00     0.156 A
ATOM      5  N   UNL     1      35.633  11.817  -1.941  1.00  0.00    -0.344 N
ATOM      6  C   UNL     1      35.258  13.122  -2.207  1.00  0.00     0.100 A
ATOM      7  C   UNL     1      33.968  13.116  -2.718  1.00  0.00     0.085 A
ATOM      8  C   UNL     1      33.587  11.755  -2.759  1.00  0.00     0.120 A
ATOM      9  N   UNL     1      32.436  11.227  -3.210  1.00  0.00    -0.246 NA
ATOM     10  H   UNL     1      36.525  11.515  -1.578  1.00  0.00     0.168 HD
ENDROOT
BRANCH   7  11
ATOM     11  C   UNL     1      33.175  14.249  -3.194  1.00  0.00     0.255 C
ATOM     12  N   UNL     1      31.959  13.887  -3.732  1.00  0.00    -0.340 N
ATOM     13  O   UNL     1      33.580  15.404  -3.149  1.00  0.00    -0.269 OA
ATOM     14  H   UNL     1      31.708  12.902  -3.698  1.00  0.00     0.164 HD
BRANCH  12  15
ATOM     15  C   UNL     1      31.062  14.776  -4.455  1.00  0.00     0.175 C
BRANCH  15  16
ATOM     16  C   UNL     1      31.844  15.290  -5.718  1.00  0.00     0.245 C
ATOM     17  O   UNL     1      32.403  14.516  -6.500  1.00  0.00    -0.272 OA
BRANCH  16  18
ATOM     18  N   UNL     1      32.024  16.660  -5.873  1.00  0.00    -0.334 N
ATOM     19  N   UNL     1      34.712  20.440  -6.787  1.00  0.00    -0.198 NA
ATOM     20  C   UNL     1      33.964  19.712  -6.281  1.00  0.00     0.067 C
ATOM     21  C   UNL     1      33.029  18.791  -5.638  1.00  0.00     0.114 C
ATOM     22  C   UNL     1      31.589  18.983  -6.099  1.00  0.00     0.048 C
ATOM     23  C   UNL     1      33.310  17.338  -6.008  1.00  0.00     0.138 C
ATOM     24  C   UNL     1      30.922  17.644  -5.750  1.00  0.00     0.112 C
ATOM     25  G   UNL     1      29.613  17.435  -6.563  1.00  0.00     0.000 C
ENDBRANCH  16  18
ENDBRANCH  15  16
BRANCH  15  26
ATOM     26  C   UNL     1      29.752  14.061  -4.708  1.00  0.00     0.021 C
ATOM     27  C   UNL     1      28.402  14.738  -4.681  1.00  0.00     0.006 C
ATOM     28  C   UNL     1      28.958  14.218  -5.982  1.00  0.00     0.006 C
ENDBRANCH  15  26
ENDBRANCH  12  15
ENDBRANCH   7  11
BRANCH   1  29
ATOM     29  C   UNL     1      31.099   9.339  -3.943  1.00  0.00     0.038 C
ATOM     30  C   UNL     1      29.805  10.131  -3.888  1.00  0.00     0.017 C
ATOM     31  C   UNL     1      30.549  10.003  -5.189  1.00  0.00     0.017 C
BRANCH  29  32
ATOM     32  C   UNL     1      31.046   7.813  -3.842  1.00  0.00     0.173 C
BRANCH  32  33
ATOM     33  O   UNL     1      30.737   7.137  -5.058  1.00  0.00    -0.378 OA
BRANCH  33  34
ATOM     34  C   UNL     1      29.748   6.115  -4.834  1.00  0.00     0.185 C
ATOM     35  G   UNL     1      28.409   6.274  -5.609  1.00  0.00     0.000 C
ENDBRANCH  33  34
ENDBRANCH  32  33
ENDBRANCH  29  32
ENDBRANCH   1  29
TORSDOF 1
ENDMDL
MODEL 7
REMARK VINA RESULT:      -8.4      1.278      1.444
REMARK SMILES N#C[C@H]1C[C@H]2COCC3(CC3)c3cnc4[nH]cc(c4n3)C(=O)N[C@H](C3CC3)C(=O)N2C1
REMARK SMILES IDX 12 1 13 2 14 3 15 4 16 5 17 6 18 7 19 8 20 9 21 11 23 12
REMARK SMILES IDX 22 13 24 15 28 16 29 17 30 18 1 19 2 20 3 21 4 22 31 23 5 24
REMARK SMILES IDX 25 26 26 27 27 28 9 29 10 30 11 31 8 32 7 33 6 34
REMARK H PARENT 16 10 23 14
REMARK Flexibility Score:  122.900
ROOT
ATOM      1  C   UNL     1      32.632  11.025  -3.233  1.00  0.00     0.068 A
ATOM      2  C   UNL     1      34.007  10.843  -3.024  1.00  0.00     0.138 A
ATOM      3  N   UNL     1      34.923  11.834  -2.772  1.00  0.00    -0.235 NA
ATOM      4  C   UNL     1      34.331  13.047  -2.781  1.00  0.00     0.156 A
ATOM      5  N   UNL     1      34.919  14.274  -2.637  1.00  0.00    -0.344 N
ATOM      6  C   UNL     1      33.965  15.265  -2.781  1.00  0.00     0.100 A
ATOM      7  C   UNL     1      32.730  14.665  -2.985  1.00  0.00     0.085 A
ATOM      8  C   UNL     1      32.983  13.275  -2.968  1.00  0.00     0.120 A
ATOM      9  N   UNL     1      32.110  12.269  -3.157  1.00  0.00    -0.246 NA
ATOM     10  H   UNL     1      35.908  14.415  -2.493  1.00  0.00     0.168 HD
ENDROOT
BRANCH   7  11
ATOM     11  C   UNL     1      31.441  15.305  -3.242  1.00  0.00     0.255 C
ATOM     12  N   UNL     1      30.809  14.842  -4.375  1.00  0.00    -0.340 N
ATOM     13  O   UNL     1      30.993  16.197  -2.532  1.00  0.00    -0.269 OA
ATOM     14  H   UNL     1      31.256  14.080  -4.881  1.00  0.00     0.164 HD
BRANCH  12  15
ATOM     15  C   UNL     1      29.622  15.432  -4.977  1.00  0.00     0.175 C
BRANCH  15  16
ATOM     16  C   UNL     1      30.116  16.404  -6.108  1.00  0.00     0.245 C
ATOM     17  O   UNL     1      30.220  16.039  -7.283  1.00  0.00    -0.272 OA
BRANCH  16  18
ATOM     18  N   UNL     1      30.579  17.664  -5.745  1.00  0.00    -0.334 N
ATOM     19  N   UNL     1      33.971  20.944  -5.465  1.00  0.00    -0.198 NA
ATOM     20  C   UNL     1      33.108  20.220  -5.187  1.00  0.00     0.067 C
ATOM     21  C   UNL     1      32.028  19.301  -4.836  1.00  0.00     0.114 C
ATOM     22  C   UNL     1      30.643  19.916  -4.998  1.00  0.00     0.048 C
ATOM     23  C   UNL     1      31.973  18.097  -5.771  1.00  0.00     0.138 C
ATOM     24  C   UNL     1      29.721  18.693  -5.110  1.00  0.00     0.112 C
ATOM     25  G   UNL     1      28.361  19.068  -5.767  1.00  0.00     0.000 C
ENDBRANCH  16  18
ENDBRANCH  15  16
BRANCH  15  26
ATOM     26  C   UNL     1      28.674  14.327  -5.391  1.00  0.00     0.021 C
ATOM     27  C   UNL     1      27.296  14.132  -4.802  1.00  0.00     0.006 C
ATOM     28  C   UNL     1      27.448  14.566  -6.238  1.00  0.00     0.006 C
ENDBRANCH  15  26
ENDBRANCH  12  15
ENDBRANCH   7  11
BRANCH   1  29
ATOM     29  C   UNL     1      31.609   9.938  -3.607  1.00  0.00     0.038 C
ATOM     30  C   UNL     1      32.014   8.475  -3.632  1.00  0.00     0.017 C
ATOM     31  C   UNL     1      31.091   8.978  -2.555  1.00  0.00     0.017 C
BRANCH  29  32
ATOM     32  C   UNL     1      30.635  10.461  -4.664  1.00  0.00     0.173 C
BRANCH  32  33
ATOM     33  O   UNL     1      29.260  10.430  -4.288  1.00  0.00    -0.378 OA
BRANCH  33  34
ATOM     34  C   UNL     1      28.549   9.430  -5.042  1.00  0.00     0.185 C
ATOM     35  G   UNL     1      29.277   8.871  -6.298  1.00  0.00     0.000 C
ENDBRANCH  33  34
ENDBRANCH  32  33
ENDBRANCH  29  32
ENDBRANCH   1  29
TORSDOF 1
ENDMDL
MODEL 8
REMARK VINA RESULT:      -8.4      1.724      2.506
REMARK SMILES N#C[C@H]1C[C@H]2COCC3(CC3)c3cnc4[nH]cc(c4n3)C(=O)N[C@H](C3CC3)C(=O)N2C1
REMARK SMILES IDX 12 1 13 2 14 3 15 4 16 5 17 6 18 7 19 8 20 9 21 11 23 12
REMARK SMILES IDX 22 13 24 15 28 16 29 17 30 18 1 19 2 20 3 21 4 22 31 23 5 24
REMARK SMILES IDX 25 26 26 27 27 28 9 29 10 30 11 31 8 32 7 33 6 34
REMARK H PARENT 16 10 23 14
REMARK Flexibility Score:  122.900
ROOT
ATOM      1  C   UNL     1      32.646  10.049  -3.098  1.00  0.00     0.068 A
ATOM      2  C   UNL     1      33.777   9.345  -2.658  1.00  0.00     0.138 A
ATOM      3  N   UNL     1      34.946   9.900  -2.201  1.00  0.00    -0.235 NA
ATOM      4  C   UNL     1      34.890  11.247  -2.256  1.00  0.00     0.156 A
ATOM      5  N   UNL     1      35.877  12.146  -1.952  1.00  0.00    -0.344 N
ATOM      6  C   UNL     1      35.432  13.429  -2.216  1.00  0.00     0.100 A
ATOM      7  C   UNL     1      34.120  13.360  -2.664  1.00  0.00     0.085 A
ATOM      8  C   UNL     1      33.799  11.983  -2.668  1.00  0.00     0.120 A
ATOM      9  N   UNL     1      32.651  11.399  -3.057  1.00  0.00    -0.246 NA
ATOM     10  H   UNL     1      36.797  11.888  -1.628  1.00  0.00     0.168 HD
ENDROOT
BRANCH   7  11
ATOM     11  C   UNL     1      33.257  14.450  -3.115  1.00  0.00     0.255 C
ATOM     12  N   UNL     1      32.073  14.023  -3.677  1.00  0.00    -0.340 N
ATOM     13  O   UNL     1      33.581  15.628  -3.032  1.00  0.00    -0.269 OA
ATOM     14  H   UNL     1      31.890  13.022  -3.674  1.00  0.00     0.164 HD
BRANCH  12  15
ATOM     15  C   UNL     1      31.124  14.870  -4.384  1.00  0.00     0.175 C
BRANCH  15  16
ATOM     16  C   UNL     1      31.842  15.377  -5.686  1.00  0.00     0.245 C
ATOM     17  O   UNL     1      32.354  14.598  -6.495  1.00  0.00    -0.272 OA
BRANCH  16  18
ATOM     18  N   UNL     1      32.024  16.745  -5.853  1.00  0.00    -0.334 N
ATOM     19  N   UNL     1      34.721  20.517  -6.776  1.00  0.00    -0.198 NA
ATOM     20  C   UNL     1      33.968  19.794  -6.270  1.00  0.00     0.067 C
ATOM     21  C   UNL     1      33.027  18.878  -5.628  1.00  0.00     0.114 C
ATOM     22  C   UNL     1      31.592  19.066  -6.105  1.00  0.00     0.048 C
ATOM     23  C   UNL     1      33.312  17.422  -5.982  1.00  0.00     0.138 C
ATOM     24  C   UNL     1      30.921  17.730  -5.749  1.00  0.00     0.112 C
ATOM     25  G   UNL     1      29.620  17.514  -6.573  1.00  0.00     0.000 C
ENDBRANCH  16  18
ENDBRANCH  15  16
BRANCH  15  26
ATOM     26  C   UNL     1      29.826  14.113  -4.570  1.00  0.00     0.021 C
ATOM     27  C   UNL     1      28.472  14.774  -4.678  1.00  0.00     0.006 C
ATOM     28  C   UNL     1      29.070  14.080  -5.876  1.00  0.00     0.006 C
ENDBRANCH  15  26
ENDBRANCH  12  15
ENDBRANCH   7  11
BRANCH   1  29
ATOM     29  C   UNL     1      31.365   9.444  -3.700  1.00  0.00     0.038 C
ATOM     30  C   UNL     1      31.376   8.045  -4.288  1.00  0.00     0.017 C
ATOM     31  C   UNL     1      30.651   8.308  -2.996  1.00  0.00     0.017 C
BRANCH  29  32
ATOM     32  C   UNL     1      30.526  10.531  -4.375  1.00  0.00     0.173 C
BRANCH  32  33
ATOM     33  O   UNL     1      29.171  10.608  -3.937  1.00  0.00    -0.378 OA
BRANCH  33  34
ATOM     34  C   UNL     1      28.271  10.547  -5.059  1.00  0.00     0.185 C
ATOM     35  G   UNL     1      27.779   9.129  -5.468  1.00  0.00     0.000 C
ENDBRANCH  33  34
ENDBRANCH  32  33
ENDBRANCH  29  32
ENDBRANCH   1  29
TORSDOF 1
ENDMDL
MODEL 9
REMARK VINA RESULT:      -8.3      2.019      4.390
REMARK SMILES N#C[C@H]1C[C@H]2COCC3(CC3)c3cnc4[nH]cc(c4n3)C(=O)N[C@H](C3CC3)C(=O)N2C1
REMARK SMILES IDX 12 1 13 2 14 3 15 4 16 5 17 6 18 7 19 8 20 9 21 11 23 12
REMARK SMILES IDX 22 13 24 15 28 16 29 17 30 18 1 19 2 20 3 21 4 22 31 23 5 24
REMARK SMILES IDX 25 26 26 27 27 28 9 29 10 30 11 31 8 32 7 33 6 34
REMARK H PARENT 16 10 23 14
REMARK Flexibility Score:  122.900
ROOT
ATOM      1  C   UNL     1      31.663   9.990  -3.792  1.00  0.00     0.068 A
ATOM      2  C   UNL     1      30.810   8.930  -4.136  1.00  0.00     0.138 A
ATOM      3  N   UNL     1      29.616   9.038  -4.805  1.00  0.00    -0.235 NA
ATOM      4  C   UNL     1      29.334  10.330  -5.074  1.00  0.00     0.156 A
ATOM      5  N   UNL     1      28.211  10.843  -5.664  1.00  0.00    -0.344 N
ATOM      6  C   UNL     1      28.288  12.224  -5.685  1.00  0.00     0.100 A
ATOM      7  C   UNL     1      29.501  12.608  -5.132  1.00  0.00     0.085 A
ATOM      8  C   UNL     1      30.145  11.403  -4.768  1.00  0.00     0.120 A
ATOM      9  N   UNL     1      31.334  11.247  -4.161  1.00  0.00    -0.246 NA
ATOM     10  H   UNL     1      27.435  10.284  -5.987  1.00  0.00     0.168 HD
ENDROOT
BRANCH   7  11
ATOM     11  C   UNL     1      30.002  13.961  -4.893  1.00  0.00     0.255 C
ATOM     12  N   UNL     1      31.161  14.252  -5.578  1.00  0.00    -0.340 N
ATOM     13  O   UNL     1      29.456  14.741  -4.123  1.00  0.00    -0.269 OA
ATOM     14  H   UNL     1      31.519  13.542  -6.213  1.00  0.00     0.164 HD
BRANCH  12  15
ATOM     15  C   UNL     1      31.981  15.438  -5.378  1.00  0.00     0.175 C
BRANCH  15  16
ATOM     16  C   UNL     1      31.280  16.617  -6.143  1.00  0.00     0.245 C
ATOM     17  O   UNL     1      30.352  16.422  -6.933  1.00  0.00    -0.272 OA
BRANCH  16  18
ATOM     18  N   UNL     1      31.816  17.895  -6.028  1.00  0.00    -0.334 N
ATOM     19  N   UNL     1      31.969  22.198  -4.078  1.00  0.00    -0.198 NA
ATOM     20  C   UNL     1      31.928  21.337  -4.855  1.00  0.00     0.067 C
ATOM     21  C   UNL     1      31.866  20.254  -5.833  1.00  0.00     0.114 C
ATOM     22  C   UNL     1      33.242  19.775  -6.282  1.00  0.00     0.048 C
ATOM     23  C   UNL     1      31.245  18.989  -5.249  1.00  0.00     0.138 C
ATOM     24  C   UNL     1      32.967  18.368  -6.834  1.00  0.00     0.112 C
ATOM     25  G   UNL     1      34.268  17.517  -6.886  1.00  0.00     0.000 C
ENDBRANCH  16  18
ENDBRANCH  15  16
BRANCH  15  26
ATOM     26  C   UNL     1      32.219  15.631  -3.895  1.00  0.00     0.021 C
ATOM     27  C   UNL     1      32.649  14.528  -2.958  1.00  0.00     0.006 C
ATOM     28  C   UNL     1      33.596  15.658  -3.277  1.00  0.00     0.006 C
ENDBRANCH  15  26
ENDBRANCH  12  15
ENDBRANCH   7  11
BRANCH   1  29
ATOM     29  C   UNL     1      32.955   9.895  -2.963  1.00  0.00     0.038 C
ATOM     30  C   UNL     1      32.923   9.360  -1.543  1.00  0.00     0.017 C
ATOM     31  C   UNL     1      33.559   8.544  -2.636  1.00  0.00     0.017 C
BRANCH  29  32
ATOM     32  C   UNL     1      33.895  11.055  -3.303  1.00  0.00     0.173 C
BRANCH  32  33
ATOM     33  O   UNL     1      34.153  11.958  -2.232  1.00  0.00    -0.378 OA
BRANCH  33  34
ATOM     34  C   UNL     1      35.569  12.100  -2.016  1.00  0.00     0.185 C
ATOM     35  G   UNL     1      36.171  11.275  -0.842  1.00  0.00     0.000 C
ENDBRANCH  33  34
ENDBRANCH  32  33
ENDBRANCH  29  32
ENDBRANCH   1  29
TORSDOF 1
ENDMDL
