MODEL 1
REMARK VINA RESULT:     -10.7      0.000      0.000
REMARK SMILES Fc1cc2cc(F)c1CN1CCOC[C@H]1CSC[C@H]1CNCC[C@H]1n1cc(cn1)-c1cnc3cccc-2c3n1
REMARK SMILES IDX 1 1 2 2 3 3 4 4 5 5 6 6 7 7 8 8 9 9 10 10 11 11 15 12 12 13
REMARK SMILES IDX 14 14 13 15 16 16 17 17 18 18 37 20 36 21 38 22 35 23 39 24
REMARK SMILES IDX 33 25 34 26 30 27 32 28 31 29 27 30 26 31 28 32 25 33 29 34
REMARK SMILES IDX 24 35 23 36 19 37 22 38 20 39 21 40
REMARK H PARENT 21 41
REMARK Flexibility Score:   78.900
ROOT
ATOM      1  F   UNL     1      30.000  13.950  -6.081  1.00  0.00    -0.207 F
ATOM      2  C   UNL     1      31.059  14.332  -5.351  1.00  0.00     0.131 A
ATOM      3  C   UNL     1      31.737  13.366  -4.608  1.00  0.00     0.048 A
ATOM      4  C   UNL     1      32.873  13.707  -3.861  1.00  0.00    -0.010 A
ATOM      5  C   UNL     1      33.299  15.042  -3.878  1.00  0.00     0.048 A
ATOM      6  C   UNL     1      32.610  15.993  -4.630  1.00  0.00     0.131 A
ATOM      7  F   UNL     1      33.072  17.254  -4.638  1.00  0.00    -0.207 F
ATOM      8  C   UNL     1      31.484  15.660  -5.383  1.00  0.00     0.038 A
ENDROOT
BRANCH   8   9
ATOM      9  C   UNL     1      30.758  16.684  -6.213  1.00  0.00     0.126 C
BRANCH   9  10
ATOM     10  N   UNL     1      30.108  17.745  -5.410  1.00  0.00    -0.291 NA
ATOM     11  C   UNL     1      28.990  17.176  -4.635  1.00  0.00     0.113 C
ATOM     12  C   UNL     1      29.605  18.854  -6.276  1.00  0.00     0.092 C
ATOM     13  C   UNL     1      27.814  16.687  -5.502  1.00  0.00     0.175 C
ATOM     14  C   UNL     1      28.064  18.822  -6.493  1.00  0.00     0.180 C
ATOM     15  O   UNL     1      27.588  17.487  -6.671  1.00  0.00    -0.378 OA
BRANCH  12  16
ATOM     16  C   UNL     1      29.972  20.250  -5.712  1.00  0.00     0.091 C
BRANCH  16  17
ATOM     17  S   UNL     1      31.281  20.218  -4.439  1.00  0.00    -0.160 SA
BRANCH  17  18
ATOM     18  C   UNL     1      32.761  20.488  -5.483  1.00  0.00     0.076 C
ATOM     19  G   UNL     1      32.962  21.980  -5.843  1.00  0.00     0.000 C
ENDBRANCH  17  18
ENDBRANCH  16  17
ENDBRANCH  12  16
ENDBRANCH   9  10
ENDBRANCH   8   9
BRANCH   4  20
ATOM     20  C   UNL     1      33.616  12.682  -3.111  1.00  0.00     0.010 A
ATOM     21  C   UNL     1      34.789  13.065  -2.434  1.00  0.00     0.011 A
ATOM     22  C   UNL     1      33.187  11.342  -3.073  1.00  0.00     0.097 A
ATOM     23  C   UNL     1      35.536  12.131  -1.728  1.00  0.00     0.003 A
ATOM     24  N   UNL     1      32.061  10.947  -3.713  1.00  0.00    -0.244 NA
ATOM     25  C   UNL     1      33.967  10.394  -2.359  1.00  0.00     0.089 A
ATOM     26  C   UNL     1      35.117  10.805  -1.700  1.00  0.00     0.030 A
ATOM     27  C   UNL     1      31.732   9.635  -3.670  1.00  0.00     0.092 A
ATOM     28  N   UNL     1      33.629   9.091  -2.303  1.00  0.00    -0.252 NA
ATOM     29  C   UNL     1      32.511   8.729  -2.972  1.00  0.00     0.140 A
BRANCH  27  30
ATOM     30  C   UNL     1      30.555   9.231  -4.406  1.00  0.00     0.040 A
ATOM     31  C   UNL     1      30.423   8.033  -5.079  1.00  0.00     0.119 A
ATOM     32  C   UNL     1      29.321   9.876  -4.619  1.00  0.00     0.145 A
ATOM     33  N   UNL     1      29.151   7.996  -5.578  1.00  0.00    -0.269 N
ATOM     34  N   UNL     1      28.478   9.145  -5.351  1.00  0.00    -0.181 NA
BRANCH  33  35
ATOM     35  C   UNL     1      28.530   6.938  -6.379  1.00  0.00     0.114 C
ATOM     36  C   UNL     1      29.458   5.722  -6.587  1.00  0.00     0.043 C
ATOM     37  C   UNL     1      27.940   7.406  -7.743  1.00  0.00     0.037 C
ATOM     38  C   UNL     1      28.736   4.604  -7.328  1.00  0.00     0.083 C
ATOM     39  C   UNL     1      27.287   6.191  -8.430  1.00  0.00     0.087 C
ATOM     40  N   UNL     1      28.191   5.055  -8.604  1.00  0.00    -0.316 NA
ATOM     41  H   UNL     1      28.954   5.291  -9.238  1.00  0.00     0.122 HD
ATOM     42  G   UNL     1      28.987   8.078  -8.664  1.00  0.00     0.000 C
ENDBRANCH  33  35
ENDBRANCH  27  30
ENDBRANCH   4  20
TORSDOF 0
ENDMDL
MODEL 2
REMARK VINA RESULT:     -10.7      1.852      3.116
REMARK SMILES Fc1cc2cc(F)c1CN1CCOC[C@H]1CSC[C@H]1CNCC[C@H]1n1cc(cn1)-c1cnc3cccc-2c3n1
REMARK SMILES IDX 1 1 2 2 3 3 4 4 5 5 6 6 7 7 8 8 9 9 10 10 11 11 15 12 12 13
REMARK SMILES IDX 14 14 13 15 16 16 17 17 18 18 37 20 36 21 38 22 35 23 39 24
REMARK SMILES IDX 33 25 34 26 30 27 32 28 31 29 27 30 26 31 28 32 25 33 29 34
REMARK SMILES IDX 24 35 23 36 19 37 22 38 20 39 21 40
REMARK H PARENT 21 41
REMARK Flexibility Score:   78.900
ROOT
ATOM      1  F   UNL     1      32.390  15.023  -6.308  1.00  0.00    -0.207 F
ATOM      2  C   UNL     1      32.340  14.810  -4.984  1.00  0.00     0.131 A
ATOM      3  C   UNL     1      33.040  13.723  -4.460  1.00  0.00     0.048 A
ATOM      4  C   UNL     1      33.052  13.481  -3.080  1.00  0.00    -0.010 A
ATOM      5  C   UNL     1      32.337  14.353  -2.248  1.00  0.00     0.048 A
ATOM      6  C   UNL     1      31.646  15.437  -2.791  1.00  0.00     0.131 A
ATOM      7  F   UNL     1      30.999  16.262  -1.953  1.00  0.00    -0.207 F
ATOM      8  C   UNL     1      31.636  15.690  -4.162  1.00  0.00     0.038 A
ENDROOT
BRANCH   8   9
ATOM      9  C   UNL     1      30.909  16.874  -4.741  1.00  0.00     0.126 C
BRANCH   9  10
ATOM     10  N   UNL     1      29.824  16.504  -5.676  1.00  0.00    -0.291 NA
ATOM     11  C   UNL     1      29.662  17.552  -6.701  1.00  0.00     0.113 C
ATOM     12  C   UNL     1      28.529  16.301  -4.957  1.00  0.00     0.092 C
ATOM     13  C   UNL     1      29.142  18.893  -6.146  1.00  0.00     0.175 C
ATOM     14  C   UNL     1      27.536  17.488  -5.122  1.00  0.00     0.180 C
ATOM     15  O   UNL     1      28.209  18.746  -5.066  1.00  0.00    -0.378 OA
BRANCH  12  16
ATOM     16  C   UNL     1      27.801  15.011  -5.415  1.00  0.00     0.091 C
BRANCH  16  17
ATOM     17  S   UNL     1      26.610  15.272  -6.775  1.00  0.00    -0.160 SA
BRANCH  17  18
ATOM     18  C   UNL     1      25.478  13.860  -6.495  1.00  0.00     0.076 C
ATOM     19  G   UNL     1      24.416  13.727  -7.614  1.00  0.00     0.000 C
ENDBRANCH  17  18
ENDBRANCH  16  17
ENDBRANCH  12  16
ENDBRANCH   9  10
ENDBRANCH   8   9
BRANCH   4  20
ATOM     20  C   UNL     1      33.825  12.362  -2.519  1.00  0.00     0.010 A
ATOM     21  C   UNL     1      35.016  12.648  -1.826  1.00  0.00     0.011 A
ATOM     22  C   UNL     1      33.406  11.027  -2.675  1.00  0.00     0.097 A
ATOM     23  C   UNL     1      35.790  11.625  -1.295  1.00  0.00     0.003 A
ATOM     24  N   UNL     1      32.263  10.722  -3.334  1.00  0.00    -0.244 NA
ATOM     25  C   UNL     1      34.213   9.989  -2.139  1.00  0.00     0.089 A
ATOM     26  C   UNL     1      35.380  10.306  -1.458  1.00  0.00     0.030 A
ATOM     27  C   UNL     1      31.943   9.415  -3.483  1.00  0.00     0.092 A
ATOM     28  N   UNL     1      33.886   8.689  -2.273  1.00  0.00    -0.252 NA
ATOM     29  C   UNL     1      32.750   8.422  -2.957  1.00  0.00     0.140 A
BRANCH  27  30
ATOM     30  C   UNL     1      30.746   9.117  -4.237  1.00  0.00     0.040 A
ATOM     31  C   UNL     1      30.529   7.944  -4.932  1.00  0.00     0.119 A
ATOM     32  C   UNL     1      29.568   9.859  -4.451  1.00  0.00     0.145 A
ATOM     33  N   UNL     1      29.263   8.014  -5.443  1.00  0.00    -0.269 N
ATOM     34  N   UNL     1      28.680   9.208  -5.203  1.00  0.00    -0.181 NA
BRANCH  33  35
ATOM     35  C   UNL     1      28.571   7.021  -6.269  1.00  0.00     0.114 C
ATOM     36  C   UNL     1      29.402   5.739  -6.486  1.00  0.00     0.043 C
ATOM     37  C   UNL     1      28.036   7.556  -7.631  1.00  0.00     0.037 C
ATOM     38  C   UNL     1      28.603   4.693  -7.253  1.00  0.00     0.083 C
ATOM     39  C   UNL     1      27.298   6.406  -8.345  1.00  0.00     0.087 C
ATOM     40  N   UNL     1      28.111   5.205  -8.527  1.00  0.00    -0.316 NA
ATOM     41  H   UNL     1      28.898   5.390  -9.149  1.00  0.00     0.122 HD
ATOM     42  G   UNL     1      29.144   8.157  -8.530  1.00  0.00     0.000 C
ENDBRANCH  33  35
ENDBRANCH  27  30
ENDBRANCH   4  20
TORSDOF 0
ENDMDL
MODEL 3
REMARK VINA RESULT:     -10.7      3.633      9.615
REMARK SMILES Fc1cc2cc(F)c1CN1CCOC[C@H]1CSC[C@H]1CNCC[C@H]1n1cc(cn1)-c1cnc3cccc-2c3n1
REMARK SMILES IDX 1 1 2 2 3 3 4 4 5 5 6 6 7 7 8 8 9 9 10 10 11 11 15 12 12 13
REMARK SMILES IDX 14 14 13 15 16 16 17 17 18 18 37 20 36 21 38 22 35 23 39 24
REMARK SMILES IDX 33 25 34 26 30 27 32 28 31 29 27 30 26 31 28 32 25 33 29 34
REMARK SMILES IDX 24 35 23 36 19 37 22 38 20 39 21 40
REMARK H PARENT 21 41
REMARK Flexibility Score:   78.900
ROOT
ATOM      1  F   UNL     1      28.122  11.375  -4.963  1.00  0.00    -0.207 F
ATOM      2  C   UNL     1      28.991  10.357  -4.866  1.00  0.00     0.131 A
ATOM      3  C   UNL     1      30.187  10.568  -4.181  1.00  0.00     0.048 A
ATOM      4  C   UNL     1      31.110   9.526  -4.018  1.00  0.00    -0.010 A
ATOM      5  C   UNL     1      30.799   8.275  -4.569  1.00  0.00     0.048 A
ATOM      6  C   UNL     1      29.596   8.083  -5.249  1.00  0.00     0.131 A
ATOM      7  F   UNL     1      29.329   6.861  -5.735  1.00  0.00    -0.207 F
ATOM      8  C   UNL     1      28.669   9.112  -5.407  1.00  0.00     0.038 A
ENDROOT
BRANCH   8   9
ATOM      9  C   UNL     1      27.361   8.895  -6.119  1.00  0.00     0.126 C
BRANCH   9  10
ATOM     10  N   UNL     1      27.488   8.107  -7.365  1.00  0.00    -0.291 NA
ATOM     11  C   UNL     1      27.964   8.971  -8.461  1.00  0.00     0.113 C
ATOM     12  C   UNL     1      26.187   7.479  -7.750  1.00  0.00     0.092 C
ATOM     13  C   UNL     1      26.954  10.053  -8.887  1.00  0.00     0.175 C
ATOM     14  C   UNL     1      25.469   8.210  -8.922  1.00  0.00     0.180 C
ATOM     15  O   UNL     1      25.586   9.629  -8.805  1.00  0.00    -0.378 OA
BRANCH  12  16
ATOM     16  C   UNL     1      26.351   5.992  -8.153  1.00  0.00     0.091 C
BRANCH  16  17
ATOM     17  S   UNL     1      25.499   4.821  -7.039  1.00  0.00    -0.160 SA
BRANCH  17  18
ATOM     18  C   UNL     1      26.604   4.892  -5.581  1.00  0.00     0.076 C
ATOM     19  G   UNL     1      25.996   5.721  -4.423  1.00  0.00     0.000 C
ENDBRANCH  17  18
ENDBRANCH  16  17
ENDBRANCH  12  16
ENDBRANCH   9  10
ENDBRANCH   8   9
BRANCH   4  20
ATOM     20  C   UNL     1      32.353   9.732  -3.258  1.00  0.00     0.010 A
ATOM     21  C   UNL     1      32.894   8.644  -2.548  1.00  0.00     0.011 A
ATOM     22  C   UNL     1      32.992  10.986  -3.219  1.00  0.00     0.097 A
ATOM     23  C   UNL     1      34.055   8.794  -1.801  1.00  0.00     0.003 A
ATOM     24  N   UNL     1      32.495  12.048  -3.896  1.00  0.00    -0.244 NA
ATOM     25  C   UNL     1      34.170  11.129  -2.441  1.00  0.00     0.089 A
ATOM     26  C   UNL     1      34.680  10.035  -1.755  1.00  0.00     0.030 A
ATOM     27  C   UNL     1      33.137  13.234  -3.778  1.00  0.00     0.092 A
ATOM     28  N   UNL     1      34.819  12.305  -2.338  1.00  0.00    -0.252 NA
ATOM     29  C   UNL     1      34.281  13.349  -3.008  1.00  0.00     0.140 A
BRANCH  27  30
ATOM     30  C   UNL     1      32.556  14.364  -4.467  1.00  0.00     0.040 A
ATOM     31  C   UNL     1      32.858  15.685  -4.203  1.00  0.00     0.119 A
ATOM     32  C   UNL     1      31.612  14.436  -5.511  1.00  0.00     0.145 A
ATOM     33  N   UNL     1      32.165  16.440  -5.108  1.00  0.00    -0.269 N
ATOM     34  N   UNL     1      31.351  15.691  -5.882  1.00  0.00    -0.181 NA
BRANCH  33  35
ATOM     35  C   UNL     1      32.142  17.899  -5.230  1.00  0.00     0.114 C
ATOM     36  C   UNL     1      31.042  18.402  -6.189  1.00  0.00     0.043 C
ATOM     37  C   UNL     1      33.510  18.552  -5.588  1.00  0.00     0.037 C
ATOM     38  C   UNL     1      30.980  19.924  -6.200  1.00  0.00     0.083 C
ATOM     39  C   UNL     1      33.320  20.081  -5.628  1.00  0.00     0.087 C
ATOM     40  N   UNL     1      32.267  20.522  -6.540  1.00  0.00    -0.316 NA
ATOM     41  H   UNL     1      32.504  20.297  -7.506  1.00  0.00     0.122 HD
ATOM     42  G   UNL     1      34.111  18.025  -6.914  1.00  0.00     0.000 C
ENDBRANCH  33  35
ENDBRANCH  27  30
ENDBRANCH   4  20
TORSDOF 0
ENDMDL
MODEL 4
REMARK VINA RESULT:     -10.6      1.762      2.991
REMARK SMILES Fc1cc2cc(F)c1CN1CCOC[C@H]1CSC[C@H]1CNCC[C@H]1n1cc(cn1)-c1cnc3cccc-2c3n1
REMARK SMILES IDX 1 1 2 2 3 3 4 4 5 5 6 6 7 7 8 8 9 9 10 10 11 11 15 12 12 13
REMARK SMILES IDX 14 14 13 15 16 16 17 17 18 18 37 20 36 21 38 22 35 23 39 24
REMARK SMILES IDX 33 25 34 26 30 27 32 28 31 29 27 30 26 31 28 32 25 33 29 34
REMARK SMILES IDX 24 35 23 36 19 37 22 38 20 39 21 40
REMARK H PARENT 21 41
REMARK Flexibility Score:   78.900
ROOT
ATOM      1  F   UNL     1      32.854  15.867  -5.858  1.00  0.00    -0.207 F
ATOM      2  C   UNL     1      32.600  15.375  -4.635  1.00  0.00     0.131 A
ATOM      3  C   UNL     1      33.253  14.207  -4.241  1.00  0.00     0.048 A
ATOM      4  C   UNL     1      33.052  13.675  -2.960  1.00  0.00    -0.010 A
ATOM      5  C   UNL     1      32.175  14.345  -2.095  1.00  0.00     0.048 A
ATOM      6  C   UNL     1      31.535  15.515  -2.506  1.00  0.00     0.131 A
ATOM      7  F   UNL     1      30.726  16.137  -1.635  1.00  0.00    -0.207 F
ATOM      8  C   UNL     1      31.736  16.055  -3.777  1.00  0.00     0.038 A
ENDROOT
BRANCH   8   9
ATOM      9  C   UNL     1      31.062  17.330  -4.208  1.00  0.00     0.126 C
BRANCH   9  10
ATOM     10  N   UNL     1      30.092  17.144  -5.309  1.00  0.00    -0.291 NA
ATOM     11  C   UNL     1      30.468  17.986  -6.460  1.00  0.00     0.113 C
ATOM     12  C   UNL     1      28.702  17.480  -4.874  1.00  0.00     0.092 C
ATOM     13  C   UNL     1      30.342  19.499  -6.195  1.00  0.00     0.175 C
ATOM     14  C   UNL     1      28.208  18.863  -5.392  1.00  0.00     0.180 C
ATOM     15  O   UNL     1      29.245  19.844  -5.338  1.00  0.00    -0.378 OA
BRANCH  12  16
ATOM     16  C   UNL     1      27.672  16.414  -5.326  1.00  0.00     0.091 C
BRANCH  16  17
ATOM     17  S   UNL     1      28.278  15.308  -6.648  1.00  0.00    -0.160 SA
BRANCH  17  18
ATOM     18  C   UNL     1      28.247  13.700  -5.771  1.00  0.00     0.076 C
ATOM     19  G   UNL     1      28.942  13.771  -4.389  1.00  0.00     0.000 C
ENDBRANCH  17  18
ENDBRANCH  16  17
ENDBRANCH  12  16
ENDBRANCH   9  10
ENDBRANCH   8   9
BRANCH   4  20
ATOM     20  C   UNL     1      33.771  12.468  -2.525  1.00  0.00     0.010 A
ATOM     21  C   UNL     1      35.013  12.621  -1.882  1.00  0.00     0.011 A
ATOM     22  C   UNL     1      33.251  11.180  -2.752  1.00  0.00     0.097 A
ATOM     23  C   UNL     1      35.739  11.511  -1.469  1.00  0.00     0.003 A
ATOM     24  N   UNL     1      32.057  11.003  -3.366  1.00  0.00    -0.244 NA
ATOM     25  C   UNL     1      34.008  10.053  -2.338  1.00  0.00     0.089 A
ATOM     26  C   UNL     1      35.228  10.239  -1.703  1.00  0.00     0.030 A
ATOM     27  C   UNL     1      31.638   9.736  -3.590  1.00  0.00     0.092 A
ATOM     28  N   UNL     1      33.583   8.792  -2.546  1.00  0.00    -0.252 NA
ATOM     29  C   UNL     1      32.397   8.654  -3.182  1.00  0.00     0.140 A
BRANCH  27  30
ATOM     30  C   UNL     1      30.386   9.575  -4.295  1.00  0.00     0.040 A
ATOM     31  C   UNL     1      30.129   8.587  -5.223  1.00  0.00     0.119 A
ATOM     32  C   UNL     1      29.181  10.305  -4.236  1.00  0.00     0.145 A
ATOM     33  N   UNL     1      28.823   8.727  -5.602  1.00  0.00    -0.269 N
ATOM     34  N   UNL     1      28.242   9.812  -5.046  1.00  0.00    -0.181 NA
BRANCH  33  35
ATOM     35  C   UNL     1      28.079   7.927  -6.578  1.00  0.00     0.114 C
ATOM     36  C   UNL     1      26.561   8.203  -6.545  1.00  0.00     0.043 C
ATOM     37  C   UNL     1      28.350   6.394  -6.515  1.00  0.00     0.037 C
ATOM     38  C   UNL     1      25.842   7.435  -7.647  1.00  0.00     0.083 C
ATOM     39  C   UNL     1      27.534   5.713  -7.631  1.00  0.00     0.087 C
ATOM     40  N   UNL     1      26.102   6.001  -7.575  1.00  0.00    -0.316 NA
ATOM     41  H   UNL     1      25.687   5.620  -6.725  1.00  0.00     0.122 HD
ATOM     42  G   UNL     1      28.040   5.773  -5.131  1.00  0.00     0.000 C
ENDBRANCH  33  35
ENDBRANCH  27  30
ENDBRANCH   4  20
TORSDOF 0
ENDMDL
MODEL 5
REMARK VINA RESULT:     -10.6      0.845      1.587
REMARK SMILES Fc1cc2cc(F)c1CN1CCOC[C@H]1CSC[C@H]1CNCC[C@H]1n1cc(cn1)-c1cnc3cccc-2c3n1
REMARK SMILES IDX 1 1 2 2 3 3 4 4 5 5 6 6 7 7 8 8 9 9 10 10 11 11 15 12 12 13
REMARK SMILES IDX 14 14 13 15 16 16 17 17 18 18 37 20 36 21 38 22 35 23 39 24
REMARK SMILES IDX 33 25 34 26 30 27 32 28 31 29 27 30 26 31 28 32 25 33 29 34
REMARK SMILES IDX 24 35 23 36 19 37 22 38 20 39 21 40
REMARK H PARENT 21 41
REMARK Flexibility Score:   78.900
ROOT
ATOM      1  F   UNL     1      32.926  17.075  -4.662  1.00  0.00    -0.207 F
ATOM      2  C   UNL     1      32.420  15.835  -4.732  1.00  0.00     0.131 A
ATOM      3  C   UNL     1      33.093  14.805  -4.074  1.00  0.00     0.048 A
ATOM      4  C   UNL     1      32.585  13.499  -4.084  1.00  0.00    -0.010 A
ATOM      5  C   UNL     1      31.390  13.259  -4.778  1.00  0.00     0.048 A
ATOM      6  C   UNL     1      30.729  14.303  -5.426  1.00  0.00     0.131 A
ATOM      7  F   UNL     1      29.575  14.031  -6.054  1.00  0.00    -0.207 F
ATOM      8  C   UNL     1      31.224  15.607  -5.414  1.00  0.00     0.038 A
ENDROOT
BRANCH   8   9
ATOM      9  C   UNL     1      30.496  16.734  -6.095  1.00  0.00     0.126 C
BRANCH   9  10
ATOM     10  N   UNL     1      30.180  17.865  -5.194  1.00  0.00    -0.291 NA
ATOM     11  C   UNL     1      28.752  17.832  -4.827  1.00  0.00     0.113 C
ATOM     12  C   UNL     1      30.504  19.178  -5.830  1.00  0.00     0.092 C
ATOM     13  C   UNL     1      27.798  18.105  -6.006  1.00  0.00     0.175 C
ATOM     14  C   UNL     1      29.251  19.941  -6.349  1.00  0.00     0.180 C
ATOM     15  O   UNL     1      28.309  19.054  -6.952  1.00  0.00    -0.378 OA
BRANCH  12  16
ATOM     16  C   UNL     1      31.266  20.123  -4.866  1.00  0.00     0.091 C
BRANCH  16  17
ATOM     17  S   UNL     1      31.984  21.593  -5.679  1.00  0.00    -0.160 SA
BRANCH  17  18
ATOM     18  C   UNL     1      33.745  21.097  -5.758  1.00  0.00     0.076 C
ATOM     19  G   UNL     1      33.949  19.774  -6.536  1.00  0.00     0.000 C
ENDBRANCH  17  18
ENDBRANCH  16  17
ENDBRANCH  12  16
ENDBRANCH   9  10
ENDBRANCH   8   9
BRANCH   4  20
ATOM     20  C   UNL     1      33.268  12.419  -3.355  1.00  0.00     0.010 A
ATOM     21  C   UNL     1      34.448  12.725  -2.653  1.00  0.00     0.011 A
ATOM     22  C   UNL     1      32.775  11.100  -3.362  1.00  0.00     0.097 A
ATOM     23  C   UNL     1      35.139  11.737  -1.965  1.00  0.00     0.003 A
ATOM     24  N   UNL     1      31.641  10.779  -4.028  1.00  0.00    -0.244 NA
ATOM     25  C   UNL     1      33.499  10.096  -2.667  1.00  0.00     0.089 A
ATOM     26  C   UNL     1      34.657  10.432  -1.981  1.00  0.00     0.030 A
ATOM     27  C   UNL     1      31.249   9.483  -4.027  1.00  0.00     0.092 A
ATOM     28  N   UNL     1      33.099   8.810  -2.653  1.00  0.00    -0.252 NA
ATOM     29  C   UNL     1      31.974   8.521  -3.347  1.00  0.00     0.140 A
BRANCH  27  30
ATOM     30  C   UNL     1      30.065   9.157  -4.790  1.00  0.00     0.040 A
ATOM     31  C   UNL     1      29.922   8.032  -5.577  1.00  0.00     0.119 A
ATOM     32  C   UNL     1      28.831   9.825  -4.929  1.00  0.00     0.145 A
ATOM     33  N   UNL     1      28.646   8.048  -6.066  1.00  0.00    -0.269 N
ATOM     34  N   UNL     1      27.980   9.172  -5.722  1.00  0.00    -0.181 NA
BRANCH  33  35
ATOM     35  C   UNL     1      28.015   7.077  -6.963  1.00  0.00     0.114 C
ATOM     36  C   UNL     1      28.908   5.849  -7.239  1.00  0.00     0.043 C
ATOM     37  C   UNL     1      27.480   7.667  -8.301  1.00  0.00     0.037 C
ATOM     38  C   UNL     1      28.172   4.816  -8.082  1.00  0.00     0.083 C
ATOM     39  C   UNL     1      26.808   6.531  -9.096  1.00  0.00     0.087 C
ATOM     40  N   UNL     1      27.679   5.381  -9.334  1.00  0.00    -0.316 NA
ATOM     41  H   UNL     1      28.467   5.639  -9.927  1.00  0.00     0.122 HD
ATOM     42  G   UNL     1      28.573   8.371  -9.141  1.00  0.00     0.000 C
ENDBRANCH  33  35
ENDBRANCH  27  30
ENDBRANCH   4  20
TORSDOF 0
ENDMDL
MODEL 6
REMARK VINA RESULT:     -10.5      2.074      3.224
REMARK SMILES Fc1cc2cc(F)c1CN1CCOC[C@H]1CSC[C@H]1CNCC[C@H]1n1cc(cn1)-c1cnc3cccc-2c3n1
REMARK SMILES IDX 1 1 2 2 3 3 4 4 5 5 6 6 7 7 8 8 9 9 10 10 11 11 15 12 12 13
REMARK SMILES IDX 14 14 13 15 16 16 17 17 18 18 37 20 36 21 38 22 35 23 39 24
REMARK SMILES IDX 33 25 34 26 30 27 32 28 31 29 27 30 26 31 28 32 25 33 29 34
REMARK SMILES IDX 24 35 23 36 19 37 22 38 20 39 21 40
REMARK H PARENT 21 41
REMARK Flexibility Score:   78.900
ROOT
ATOM      1  F   UNL     1      32.664  15.665  -6.208  1.00  0.00    -0.207 F
ATOM      2  C   UNL     1      32.431  15.233  -4.960  1.00  0.00     0.131 A
ATOM      3  C   UNL     1      32.914  13.977  -4.591  1.00  0.00     0.048 A
ATOM      4  C   UNL     1      32.731  13.497  -3.287  1.00  0.00    -0.010 A
ATOM      5  C   UNL     1      32.045  14.309  -2.373  1.00  0.00     0.048 A
ATOM      6  C   UNL     1      31.573  15.563  -2.760  1.00  0.00     0.131 A
ATOM      7  F   UNL     1      30.946  16.317  -1.843  1.00  0.00    -0.207 F
ATOM      8  C   UNL     1      31.758  16.052  -4.053  1.00  0.00     0.038 A
ENDROOT
BRANCH   8   9
ATOM      9  C   UNL     1      31.269  17.416  -4.460  1.00  0.00     0.126 C
BRANCH   9  10
ATOM     10  N   UNL     1      30.680  17.454  -5.817  1.00  0.00    -0.291 NA
ATOM     11  C   UNL     1      30.735  18.827  -6.351  1.00  0.00     0.113 C
ATOM     12  C   UNL     1      29.265  16.973  -5.813  1.00  0.00     0.092 C
ATOM     13  C   UNL     1      29.834  19.826  -5.600  1.00  0.00     0.175 C
ATOM     14  C   UNL     1      28.220  18.122  -5.911  1.00  0.00     0.180 C
ATOM     15  O   UNL     1      28.607  19.252  -5.127  1.00  0.00    -0.378 OA
BRANCH  12  16
ATOM     16  C   UNL     1      28.980  15.978  -6.966  1.00  0.00     0.091 C
BRANCH  16  17
ATOM     17  S   UNL     1      28.586  14.284  -6.407  1.00  0.00    -0.160 SA
BRANCH  17  18
ATOM     18  C   UNL     1      27.931  14.634  -4.734  1.00  0.00     0.076 C
ATOM     19  G   UNL     1      26.390  14.770  -4.722  1.00  0.00     0.000 C
ENDBRANCH  17  18
ENDBRANCH  16  17
ENDBRANCH  12  16
ENDBRANCH   9  10
ENDBRANCH   8   9
BRANCH   4  20
ATOM     20  C   UNL     1      33.276  12.192  -2.881  1.00  0.00     0.010 A
ATOM     21  C   UNL     1      34.488  12.164  -2.167  1.00  0.00     0.011 A
ATOM     22  C   UNL     1      32.622  10.988  -3.205  1.00  0.00     0.097 A
ATOM     23  C   UNL     1      35.053  10.956  -1.778  1.00  0.00     0.003 A
ATOM     24  N   UNL     1      31.453  10.986  -3.889  1.00  0.00    -0.244 NA
ATOM     25  C   UNL     1      33.217   9.760  -2.813  1.00  0.00     0.089 A
ATOM     26  C   UNL     1      34.411   9.767  -2.107  1.00  0.00     0.030 A
ATOM     27  C   UNL     1      30.902   9.791  -4.203  1.00  0.00     0.092 A
ATOM     28  N   UNL     1      32.659   8.571  -3.112  1.00  0.00    -0.252 NA
ATOM     29  C   UNL     1      31.504   8.607  -3.815  1.00  0.00     0.140 A
BRANCH  27  30
ATOM     30  C   UNL     1      29.683   9.816  -4.979  1.00  0.00     0.040 A
ATOM     31  C   UNL     1      29.349   8.890  -5.947  1.00  0.00     0.119 A
ATOM     32  C   UNL     1      28.587  10.702  -4.967  1.00  0.00     0.145 A
ATOM     33  N   UNL     1      28.099   9.214  -6.393  1.00  0.00    -0.269 N
ATOM     34  N   UNL     1      27.638  10.357  -5.840  1.00  0.00    -0.181 NA
BRANCH  33  35
ATOM     35  C   UNL     1      27.311   8.542  -7.429  1.00  0.00     0.114 C
ATOM     36  C   UNL     1      26.300   9.483  -8.118  1.00  0.00     0.043 C
ATOM     37  C   UNL     1      26.604   7.231  -6.971  1.00  0.00     0.037 C
ATOM     38  C   UNL     1      25.584   8.774  -9.260  1.00  0.00     0.083 C
ATOM     39  C   UNL     1      25.867   6.631  -8.185  1.00  0.00     0.087 C
ATOM     40  N   UNL     1      24.924   7.550  -8.817  1.00  0.00    -0.316 NA
ATOM     41  H   UNL     1      24.161   7.783  -8.181  1.00  0.00     0.122 HD
ATOM     42  G   UNL     1      25.643   7.440  -5.776  1.00  0.00     0.000 C
ENDBRANCH  33  35
ENDBRANCH  27  30
ENDBRANCH   4  20
TORSDOF 0
ENDMDL
MODEL 7
REMARK VINA RESULT:     -10.4      1.332      1.583
REMARK SMILES Fc1cc2cc(F)c1CN1CCOC[C@H]1CSC[C@H]1CNCC[C@H]1n1cc(cn1)-c1cnc3cccc-2c3n1
REMARK SMILES IDX 1 1 2 2 3 3 4 4 5 5 6 6 7 7 8 8 9 9 10 10 11 11 15 12 12 13
REMARK SMILES IDX 14 14 13 15 16 16 17 17 18 18 37 20 36 21 38 22 35 23 39 24
REMARK SMILES IDX 33 25 34 26 30 27 32 28 31 29 27 30 26 31 28 32 25 33 29 34
REMARK SMILES IDX 24 35 23 36 19 37 22 38 20 39 21 40
REMARK H PARENT 21 41
REMARK Flexibility Score:   78.900
ROOT
ATOM      1  F   UNL     1      29.232  13.231  -5.031  1.00  0.00    -0.207 F
ATOM      2  C   UNL     1      30.430  13.725  -4.683  1.00  0.00     0.131 A
ATOM      3  C   UNL     1      31.304  12.903  -3.971  1.00  0.00     0.048 A
ATOM      4  C   UNL     1      32.582  13.359  -3.618  1.00  0.00    -0.010 A
ATOM      5  C   UNL     1      32.949  14.659  -3.992  1.00  0.00     0.048 A
ATOM      6  C   UNL     1      32.061  15.464  -4.707  1.00  0.00     0.131 A
ATOM      7  F   UNL     1      32.466  16.691  -5.068  1.00  0.00    -0.207 F
ATOM      8  C   UNL     1      30.791  15.015  -5.070  1.00  0.00     0.038 A
ENDROOT
BRANCH   8   9
ATOM      9  C   UNL     1      29.845  15.878  -5.861  1.00  0.00     0.126 C
BRANCH   9  10
ATOM     10  N   UNL     1      29.396  17.086  -5.135  1.00  0.00    -0.291 NA
ATOM     11  C   UNL     1      27.938  17.035  -4.924  1.00  0.00     0.113 C
ATOM     12  C   UNL     1      29.752  18.334  -5.878  1.00  0.00     0.092 C
ATOM     13  C   UNL     1      27.115  17.136  -6.223  1.00  0.00     0.175 C
ATOM     14  C   UNL     1      28.544  18.982  -6.614  1.00  0.00     0.180 C
ATOM     15  O   UNL     1      27.701  17.995  -7.211  1.00  0.00    -0.378 OA
BRANCH  12  16
ATOM     16  C   UNL     1      30.372  19.411  -4.952  1.00  0.00     0.091 C
BRANCH  16  17
ATOM     17  S   UNL     1      31.349  20.677  -5.835  1.00  0.00    -0.160 SA
BRANCH  17  18
ATOM     18  C   UNL     1      33.047  20.137  -5.411  1.00  0.00     0.076 C
ATOM     19  G   UNL     1      33.876  19.769  -6.664  1.00  0.00     0.000 C
ENDBRANCH  17  18
ENDBRANCH  16  17
ENDBRANCH  12  16
ENDBRANCH   9  10
ENDBRANCH   8   9
BRANCH   4  20
ATOM     20  C   UNL     1      33.524  12.481  -2.906  1.00  0.00     0.010 A
ATOM     21  C   UNL     1      34.637  13.063  -2.272  1.00  0.00     0.011 A
ATOM     22  C   UNL     1      33.341  11.085  -2.864  1.00  0.00     0.097 A
ATOM     23  C   UNL     1      35.564  12.275  -1.603  1.00  0.00     0.003 A
ATOM     24  N   UNL     1      32.278  10.498  -3.464  1.00  0.00    -0.244 NA
ATOM     25  C   UNL     1      34.303  10.289  -2.189  1.00  0.00     0.089 A
ATOM     26  C   UNL     1      35.387  10.896  -1.571  1.00  0.00     0.030 A
ATOM     27  C   UNL     1      32.188   9.149  -3.419  1.00  0.00     0.092 A
ATOM     28  N   UNL     1      34.204   8.947  -2.131  1.00  0.00    -0.252 NA
ATOM     29  C   UNL     1      33.142   8.394  -2.760  1.00  0.00     0.140 A
BRANCH  27  30
ATOM     30  C   UNL     1      31.073   8.544  -4.113  1.00  0.00     0.040 A
ATOM     31  C   UNL     1      30.050   9.248  -4.716  1.00  0.00     0.119 A
ATOM     32  C   UNL     1      30.746   7.196  -4.358  1.00  0.00     0.145 A
ATOM     33  N   UNL     1      29.239   8.329  -5.322  1.00  0.00    -0.269 N
ATOM     34  N   UNL     1      29.622   7.060  -5.065  1.00  0.00    -0.181 NA
BRANCH  33  35
ATOM     35  C   UNL     1      28.011   8.576  -6.081  1.00  0.00     0.114 C
ATOM     36  C   UNL     1      27.022   7.393  -6.021  1.00  0.00     0.043 C
ATOM     37  C   UNL     1      28.228   9.023  -7.558  1.00  0.00     0.037 C
ATOM     38  C   UNL     1      25.717   7.735  -6.727  1.00  0.00     0.083 C
ATOM     39  C   UNL     1      26.848   9.286  -8.191  1.00  0.00     0.087 C
ATOM     40  N   UNL     1      25.934   8.149  -8.110  1.00  0.00    -0.316 NA
ATOM     41  H   UNL     1      26.286   7.360  -8.652  1.00  0.00     0.122 HD
ATOM     42  G   UNL     1      29.045   8.006  -8.391  1.00  0.00     0.000 C
ENDBRANCH  33  35
ENDBRANCH  27  30
ENDBRANCH   4  20
TORSDOF 0
ENDMDL
MODEL 8
REMARK VINA RESULT:     -10.4      1.892      3.138
REMARK SMILES Fc1cc2cc(F)c1CN1CCOC[C@H]1CSC[C@H]1CNCC[C@H]1n1cc(cn1)-c1cnc3cccc-2c3n1
REMARK SMILES IDX 1 1 2 2 3 3 4 4 5 5 6 6 7 7 8 8 9 9 10 10 11 11 15 12 12 13
REMARK SMILES IDX 14 14 13 15 16 16 17 17 18 18 37 20 36 21 38 22 35 23 39 24
REMARK SMILES IDX 33 25 34 26 30 27 32 28 31 29 27 30 26 31 28 32 25 33 29 34
REMARK SMILES IDX 24 35 23 36 19 37 22 38 20 39 21 40
REMARK H PARENT 21 41
REMARK Flexibility Score:   78.900
ROOT
ATOM      1  F   UNL     1      31.087  16.188  -2.040  1.00  0.00    -0.207 F
ATOM      2  C   UNL     1      31.728  15.386  -2.903  1.00  0.00     0.131 A
ATOM      3  C   UNL     1      32.315  14.219  -2.414  1.00  0.00     0.048 A
ATOM      4  C   UNL     1      32.962  13.328  -3.281  1.00  0.00    -0.010 A
ATOM      5  C   UNL     1      33.007  13.647  -4.645  1.00  0.00     0.048 A
ATOM      6  C   UNL     1      32.410  14.817  -5.116  1.00  0.00     0.131 A
ATOM      7  F   UNL     1      32.454  15.067  -6.434  1.00  0.00    -0.207 F
ATOM      8  C   UNL     1      31.758  15.705  -4.261  1.00  0.00     0.038 A
ENDROOT
BRANCH   8   9
ATOM      9  C   UNL     1      31.094  16.954  -4.775  1.00  0.00     0.126 C
BRANCH   9  10
ATOM     10  N   UNL     1      29.949  16.689  -5.674  1.00  0.00    -0.291 NA
ATOM     11  C   UNL     1      29.738  17.839  -6.573  1.00  0.00     0.113 C
ATOM     12  C   UNL     1      28.698  16.422  -4.900  1.00  0.00     0.092 C
ATOM     13  C   UNL     1      29.271  19.118  -5.852  1.00  0.00     0.175 C
ATOM     14  C   UNL     1      27.713  17.626  -4.880  1.00  0.00     0.180 C
ATOM     15  O   UNL     1      28.404  18.868  -4.738  1.00  0.00    -0.378 OA
BRANCH  12  16
ATOM     16  C   UNL     1      27.927  15.191  -5.441  1.00  0.00     0.091 C
BRANCH  16  17
ATOM     17  S   UNL     1      26.687  15.594  -6.721  1.00  0.00    -0.160 SA
BRANCH  17  18
ATOM     18  C   UNL     1      25.901  13.955  -6.944  1.00  0.00     0.076 C
ATOM     19  G   UNL     1      26.932  12.849  -7.276  1.00  0.00     0.000 C
ENDBRANCH  17  18
ENDBRANCH  16  17
ENDBRANCH  12  16
ENDBRANCH   9  10
ENDBRANCH   8   9
BRANCH   4  20
ATOM     20  C   UNL     1      33.544  12.075  -2.776  1.00  0.00     0.010 A
ATOM     21  C   UNL     1      34.765  12.134  -2.079  1.00  0.00     0.011 A
ATOM     22  C   UNL     1      32.916  10.833  -2.989  1.00  0.00     0.097 A
ATOM     23  C   UNL     1      35.364  10.977  -1.599  1.00  0.00     0.003 A
ATOM     24  N   UNL     1      31.740  10.747  -3.654  1.00  0.00    -0.244 NA
ATOM     25  C   UNL     1      33.546   9.656  -2.506  1.00  0.00     0.089 A
ATOM     26  C   UNL     1      34.748   9.750  -1.819  1.00  0.00     0.030 A
ATOM     27  C   UNL     1      31.214   9.516  -3.860  1.00  0.00     0.092 A
ATOM     28  N   UNL     1      33.013   8.433  -2.697  1.00  0.00    -0.252 NA
ATOM     29  C   UNL     1      31.850   8.383  -3.384  1.00  0.00     0.140 A
BRANCH  27  30
ATOM     30  C   UNL     1      29.985   9.448  -4.619  1.00  0.00     0.040 A
ATOM     31  C   UNL     1      29.587   8.362  -5.371  1.00  0.00     0.119 A
ATOM     32  C   UNL     1      28.939  10.377  -4.785  1.00  0.00     0.145 A
ATOM     33  N   UNL     1      28.348   8.656  -5.868  1.00  0.00    -0.269 N
ATOM     34  N   UNL     1      27.959   9.912  -5.563  1.00  0.00    -0.181 NA
BRANCH  33  35
ATOM     35  C   UNL     1      27.509   7.828  -6.738  1.00  0.00     0.114 C
ATOM     36  C   UNL     1      27.879   6.331  -6.678  1.00  0.00     0.043 C
ATOM     37  C   UNL     1      27.423   8.305  -8.219  1.00  0.00     0.037 C
ATOM     38  C   UNL     1      26.913   5.495  -7.508  1.00  0.00     0.083 C
ATOM     39  C   UNL     1      26.469   7.361  -8.976  1.00  0.00     0.087 C
ATOM     40  N   UNL     1      26.845   5.950  -8.893  1.00  0.00    -0.316 NA
ATOM     41  H   UNL     1      27.740   5.785  -9.352  1.00  0.00     0.122 HD
ATOM     42  G   UNL     1      28.803   8.388  -8.915  1.00  0.00     0.000 C
ENDBRANCH  33  35
ENDBRANCH  27  30
ENDBRANCH   4  20
TORSDOF 0
ENDMDL
MODEL 9
REMARK VINA RESULT:     -10.4      1.993      3.136
REMARK SMILES Fc1cc2cc(F)c1CN1CCOC[C@H]1CSC[C@H]1CNCC[C@H]1n1cc(cn1)-c1cnc3cccc-2c3n1
REMARK SMILES IDX 1 1 2 2 3 3 4 4 5 5 6 6 7 7 8 8 9 9 10 10 11 11 15 12 12 13
REMARK SMILES IDX 14 14 13 15 16 16 17 17 18 18 37 20 36 21 38 22 35 23 39 24
REMARK SMILES IDX 33 25 34 26 30 27 32 28 31 29 27 30 26 31 28 32 25 33 29 34
REMARK SMILES IDX 24 35 23 36 19 37 22 38 20 39 21 40
REMARK H PARENT 21 41
REMARK Flexibility Score:   78.900
ROOT
ATOM      1  F   UNL     1      30.643  16.177  -1.754  1.00  0.00    -0.207 F
ATOM      2  C   UNL     1      31.478  15.573  -2.613  1.00  0.00     0.131 A
ATOM      3  C   UNL     1      32.101  14.391  -2.213  1.00  0.00     0.048 A
ATOM      4  C   UNL     1      32.951  13.701  -3.089  1.00  0.00    -0.010 A
ATOM      5  C   UNL     1      33.160  14.237  -4.367  1.00  0.00     0.048 A
ATOM      6  C   UNL     1      32.524  15.418  -4.750  1.00  0.00     0.131 A
ATOM      7  F   UNL     1      32.733  15.878  -5.994  1.00  0.00    -0.207 F
ATOM      8  C   UNL     1      31.671  16.106  -3.888  1.00  0.00     0.038 A
ENDROOT
BRANCH   8   9
ATOM      9  C   UNL     1      30.968  17.367  -4.312  1.00  0.00     0.126 C
BRANCH   9  10
ATOM     10  N   UNL     1      30.553  17.366  -5.733  1.00  0.00    -0.291 NA
ATOM     11  C   UNL     1      30.993  18.611  -6.388  1.00  0.00     0.113 C
ATOM     12  C   UNL     1      29.072  17.223  -5.869  1.00  0.00     0.092 C
ATOM     13  C   UNL     1      30.285  19.876  -5.865  1.00  0.00     0.175 C
ATOM     14  C   UNL     1      28.350  18.558  -6.218  1.00  0.00     0.180 C
ATOM     15  O   UNL     1      28.913  19.660  -5.505  1.00  0.00    -0.378 OA
BRANCH  12  16
ATOM     16  C   UNL     1      28.680  16.181  -6.947  1.00  0.00     0.091 C
BRANCH  16  17
ATOM     17  S   UNL     1      27.058  15.390  -6.663  1.00  0.00    -0.160 SA
BRANCH  17  18
ATOM     18  C   UNL     1      27.205  14.967  -4.887  1.00  0.00     0.076 C
ATOM     19  G   UNL     1      28.510  14.196  -4.573  1.00  0.00     0.000 C
ENDBRANCH  17  18
ENDBRANCH  16  17
ENDBRANCH  12  16
ENDBRANCH   9  10
ENDBRANCH   8   9
BRANCH   4  20
ATOM     20  C   UNL     1      33.576  12.432  -2.687  1.00  0.00     0.010 A
ATOM     21  C   UNL     1      34.812  12.474  -2.016  1.00  0.00     0.011 A
ATOM     22  C   UNL     1      32.973  11.192  -2.973  1.00  0.00     0.097 A
ATOM     23  C   UNL     1      35.451  11.302  -1.633  1.00  0.00     0.003 A
ATOM     24  N   UNL     1      31.783  11.122  -3.615  1.00  0.00    -0.244 NA
ATOM     25  C   UNL     1      33.643  10.001  -2.589  1.00  0.00     0.089 A
ATOM     26  C   UNL     1      34.859  10.077  -1.925  1.00  0.00     0.030 A
ATOM     27  C   UNL     1      31.282   9.895  -3.895  1.00  0.00     0.092 A
ATOM     28  N   UNL     1      33.136   8.781  -2.853  1.00  0.00    -0.252 NA
ATOM     29  C   UNL     1      31.957   8.749  -3.515  1.00  0.00     0.140 A
BRANCH  27  30
ATOM     30  C   UNL     1      30.037   9.849  -4.628  1.00  0.00     0.040 A
ATOM     31  C   UNL     1      29.670   8.833  -5.487  1.00  0.00     0.119 A
ATOM     32  C   UNL     1      28.943  10.736  -4.666  1.00  0.00     0.145 A
ATOM     33  N   UNL     1      28.405   9.116  -5.920  1.00  0.00    -0.269 N
ATOM     34  N   UNL     1      27.964  10.310  -5.468  1.00  0.00    -0.181 NA
BRANCH  33  35
ATOM     35  C   UNL     1      27.581   8.348  -6.856  1.00  0.00     0.114 C
ATOM     36  C   UNL     1      26.630   9.236  -7.686  1.00  0.00     0.043 C
ATOM     37  C   UNL     1      26.796   7.161  -6.222  1.00  0.00     0.037 C
ATOM     38  C   UNL     1      25.876   8.412  -8.721  1.00  0.00     0.083 C
ATOM     39  C   UNL     1      26.029   6.435  -7.344  1.00  0.00     0.087 C
ATOM     40  N   UNL     1      25.143   7.306  -8.113  1.00  0.00    -0.316 NA
ATOM     41  H   UNL     1      24.394   7.673  -7.527  1.00  0.00     0.122 HD
ATOM     42  G   UNL     1      25.846   7.597  -5.080  1.00  0.00     0.000 C
ENDBRANCH  33  35
ENDBRANCH  27  30
ENDBRANCH   4  20
TORSDOF 0
ENDMDL
