MODEL 1
REMARK VINA RESULT:      -9.2      0.000      0.000
REMARK SMILES NC(=O)c1cnc2c3c1[nH]c1cc(ccc13)-c1ccc(nn1)N1CCS(=O)(=O)C[C@H]1COCC1(CC1)[C@H](C(F)(F)F)N2
REMARK SMILES IDX 4 1 5 2 6 3 7 4 8 5 9 6 10 7 11 8 12 9 13 10 14 11 15 12
REMARK SMILES IDX 16 13 2 15 1 16 3 17 42 20 37 22 34 23 35 24 36 25 38 27
REMARK SMILES IDX 39 28 40 29 41 30 17 31 18 32 22 33 19 34 21 35 20 36 23 37
REMARK SMILES IDX 24 38 30 39 25 40 29 41 26 42 27 43 28 44 31 45 32 46 33 47
REMARK H PARENT 10 14 1 18 1 19 42 21
REMARK Flexibility Score:   57.900
ROOT
ATOM      1  C   UNL     1      31.689   9.157  -3.408  1.00  0.00     0.082 A
ATOM      2  C   UNL     1      31.483   7.927  -4.023  1.00  0.00     0.129 A
ATOM      3  N   UNL     1      30.528   7.655  -4.954  1.00  0.00    -0.238 NA
ATOM      4  C   UNL     1      29.672   8.633  -5.332  1.00  0.00     0.136 A
ATOM      5  C   UNL     1      29.722   9.875  -4.658  1.00  0.00     0.051 A
ATOM      6  C   UNL     1      30.769  10.142  -3.781  1.00  0.00     0.065 A
ATOM      7  N   UNL     1      30.694  11.484  -3.458  1.00  0.00    -0.354 N
ATOM      8  C   UNL     1      29.643  12.084  -4.114  1.00  0.00     0.047 A
ATOM      9  C   UNL     1      29.291  13.437  -4.275  1.00  0.00     0.037 A
ATOM     10  C   UNL     1      28.161  13.720  -5.069  1.00  0.00     0.004 A
ATOM     11  C   UNL     1      27.321  12.663  -5.474  1.00  0.00     0.011 A
ATOM     12  C   UNL     1      27.690  11.337  -5.311  1.00  0.00     0.012 A
ATOM     13  C   UNL     1      28.922  11.054  -4.713  1.00  0.00     0.011 A
ATOM     14  H   UNL     1      31.384  11.954  -2.884  1.00  0.00     0.167 HD
ENDROOT
BRANCH   1  15
ATOM     15  C   UNL     1      32.780   9.466  -2.462  1.00  0.00     0.252 C
ATOM     16  N   UNL     1      33.657  10.466  -2.769  1.00  0.00    -0.365 N
ATOM     17  O   UNL     1      32.904   8.825  -1.423  1.00  0.00    -0.269 OA
ATOM     18  H   UNL     1      34.395  10.647  -2.098  1.00  0.00     0.159 HD
ATOM     19  H   UNL     1      33.660  11.009  -3.619  1.00  0.00     0.159 HD
ENDBRANCH   1  15
BRANCH   4  20
ATOM     20  N   UNL     1      28.886   8.390  -6.459  1.00  0.00    -0.358 N
ATOM     21  H   UNL     1      28.478   9.260  -6.793  1.00  0.00     0.162 HD
BRANCH  20  22
ATOM     22  C   UNL     1      27.896   7.282  -6.294  1.00  0.00     0.195 C
BRANCH  22  23
ATOM     23  C   UNL     1      28.007   6.227  -7.429  1.00  0.00     0.023 C
ATOM     24  C   UNL     1      27.803   4.739  -7.146  1.00  0.00     0.012 C
ATOM     25  C   UNL     1      29.182   5.254  -7.400  1.00  0.00     0.012 C
ATOM     26  G   UNL     1      27.590   6.772  -8.804  1.00  0.00     0.000 C
ENDBRANCH  22  23
BRANCH  22  27
ATOM     27  C   UNL     1      26.436   7.815  -6.155  1.00  0.00     0.409 C
ATOM     28  F   UNL     1      26.200   8.317  -4.920  1.00  0.00    -0.169 F
ATOM     29  F   UNL     1      26.172   8.792  -7.055  1.00  0.00    -0.169 F
ATOM     30  F   UNL     1      25.522   6.832  -6.350  1.00  0.00    -0.169 F
ENDBRANCH  22  27
ENDBRANCH  20  22
ENDBRANCH   4  20
BRANCH  10  31
ATOM     31  C   UNL     1      27.963  15.009  -5.771  1.00  0.00     0.093 A
ATOM     32  C   UNL     1      27.763  16.133  -4.974  1.00  0.00     0.035 A
ATOM     33  N   UNL     1      28.622  15.121  -6.949  1.00  0.00    -0.148 NA
ATOM     34  C   UNL     1      28.589  17.228  -5.193  1.00  0.00     0.051 A
ATOM     35  N   UNL     1      29.417  16.205  -7.168  1.00  0.00    -0.132 NA
ATOM     36  C   UNL     1      29.520  17.158  -6.218  1.00  0.00     0.151 A
BRANCH  36  37
ATOM     37  N   UNL     1      30.740  17.846  -6.052  1.00  0.00    -0.348 N
ATOM     38  C   UNL     1      30.670  19.242  -6.466  1.00  0.00     0.135 C
ATOM     39  C   UNL     1      31.885  17.011  -6.536  1.00  0.00     0.124 C
ATOM     40  C   UNL     1      31.798  20.000  -5.806  1.00  0.00     0.158 C
ATOM     41  C   UNL     1      32.992  17.838  -7.174  1.00  0.00     0.164 C
ATOM     42  S   UNL     1      33.370  19.299  -6.247  1.00  0.00     0.154 S
ATOM     43  O   UNL     1      34.015  20.224  -7.161  1.00  0.00    -0.229 OA
ATOM     44  O   UNL     1      34.044  18.897  -5.025  1.00  0.00    -0.229 OA
BRANCH  39  45
ATOM     45  C   UNL     1      32.430  16.066  -5.432  1.00  0.00     0.186 C
BRANCH  45  46
ATOM     46  O   UNL     1      32.014  16.546  -4.139  1.00  0.00    -0.379 OA
BRANCH  46  47
ATOM     47  C   UNL     1      32.120  15.532  -3.130  1.00  0.00     0.169 C
ATOM     48  G   UNL     1      31.036  15.715  -2.057  1.00  0.00     0.000 C
ENDBRANCH  46  47
ENDBRANCH  45  46
ENDBRANCH  39  45
ENDBRANCH  36  37
ENDBRANCH  10  31
TORSDOF 2
ENDMDL
MODEL 2
REMARK VINA RESULT:      -9.2      1.235      1.439
REMARK SMILES NC(=O)c1cnc2c3c1[nH]c1cc(ccc13)-c1ccc(nn1)N1CCS(=O)(=O)C[C@H]1COCC1(CC1)[C@H](C(F)(F)F)N2
REMARK SMILES IDX 4 1 5 2 6 3 7 4 8 5 9 6 10 7 11 8 12 9 13 10 14 11 15 12
REMARK SMILES IDX 16 13 2 15 1 16 3 17 42 20 37 22 34 23 35 24 36 25 38 27
REMARK SMILES IDX 39 28 40 29 41 30 17 31 18 32 22 33 19 34 21 35 20 36 23 37
REMARK SMILES IDX 24 38 30 39 25 40 29 41 26 42 27 43 28 44 31 45 32 46 33 47
REMARK H PARENT 10 14 1 18 1 19 42 21
REMARK Flexibility Score:   57.900
ROOT
ATOM      1  C   UNL     1      31.759   9.598  -3.567  1.00  0.00     0.082 A
ATOM      2  C   UNL     1      31.517   8.284  -3.953  1.00  0.00     0.129 A
ATOM      3  N   UNL     1      30.476   7.861  -4.720  1.00  0.00    -0.238 NA
ATOM      4  C   UNL     1      29.563   8.761  -5.155  1.00  0.00     0.136 A
ATOM      5  C   UNL     1      29.656  10.095  -4.697  1.00  0.00     0.051 A
ATOM      6  C   UNL     1      30.782  10.504  -3.991  1.00  0.00     0.065 A
ATOM      7  N   UNL     1      30.712  11.881  -3.880  1.00  0.00    -0.354 N
ATOM      8  C   UNL     1      29.583  12.362  -4.505  1.00  0.00     0.047 A
ATOM      9  C   UNL     1      29.186  13.670  -4.842  1.00  0.00     0.037 A
ATOM     10  C   UNL     1      27.973  13.815  -5.544  1.00  0.00     0.004 A
ATOM     11  C   UNL     1      27.119  12.702  -5.683  1.00  0.00     0.011 A
ATOM     12  C   UNL     1      27.533  11.421  -5.352  1.00  0.00     0.012 A
ATOM     13  C   UNL     1      28.828  11.245  -4.852  1.00  0.00     0.011 A
ATOM     14  H   UNL     1      31.447  12.441  -3.465  1.00  0.00     0.167 HD
ENDROOT
BRANCH   1  15
ATOM     15  C   UNL     1      32.936  10.061  -2.805  1.00  0.00     0.252 C
ATOM     16  N   UNL     1      33.475   9.238  -1.859  1.00  0.00    -0.365 N
ATOM     17  O   UNL     1      33.413  11.173  -3.008  1.00  0.00    -0.269 OA
ATOM     18  H   UNL     1      34.279   9.589  -1.353  1.00  0.00     0.159 HD
ATOM     19  H   UNL     1      33.120   8.332  -1.592  1.00  0.00     0.159 HD
ENDBRANCH   1  15
BRANCH   4  20
ATOM     20  N   UNL     1      28.669   8.335  -6.138  1.00  0.00    -0.358 N
ATOM     21  H   UNL     1      27.960   9.047  -6.295  1.00  0.00     0.162 HD
BRANCH  20  22
ATOM     22  C   UNL     1      28.112   6.965  -5.915  1.00  0.00     0.195 C
BRANCH  22  23
ATOM     23  C   UNL     1      28.283   6.056  -7.163  1.00  0.00     0.023 C
ATOM     24  C   UNL     1      28.073   4.544  -7.072  1.00  0.00     0.012 C
ATOM     25  C   UNL     1      29.460   5.086  -7.196  1.00  0.00     0.012 C
ATOM     26  G   UNL     1      27.928   6.764  -8.480  1.00  0.00     0.000 C
ENDBRANCH  22  23
BRANCH  22  27
ATOM     27  C   UNL     1      26.625   7.006  -5.441  1.00  0.00     0.409 C
ATOM     28  F   UNL     1      25.766   6.818  -6.469  1.00  0.00    -0.169 F
ATOM     29  F   UNL     1      26.370   6.054  -4.512  1.00  0.00    -0.169 F
ATOM     30  F   UNL     1      26.307   8.202  -4.887  1.00  0.00    -0.169 F
ENDBRANCH  22  27
ENDBRANCH  20  22
ENDBRANCH   4  20
BRANCH  10  31
ATOM     31  C   UNL     1      27.673  14.973  -6.417  1.00  0.00     0.093 A
ATOM     32  C   UNL     1      26.872  15.975  -5.876  1.00  0.00     0.035 A
ATOM     33  N   UNL     1      28.652  15.288  -7.298  1.00  0.00    -0.148 NA
ATOM     34  C   UNL     1      27.358  17.277  -5.922  1.00  0.00     0.051 A
ATOM     35  N   UNL     1      29.113  16.568  -7.354  1.00  0.00    -0.132 NA
ATOM     36  C   UNL     1      28.574  17.505  -6.546  1.00  0.00     0.151 A
BRANCH  36  37
ATOM     37  N   UNL     1      29.387  18.547  -6.050  1.00  0.00    -0.348 N
ATOM     38  C   UNL     1      29.199  19.806  -6.760  1.00  0.00     0.135 C
ATOM     39  C   UNL     1      30.782  18.057  -5.813  1.00  0.00     0.124 C
ATOM     40  C   UNL     1      29.689  20.934  -5.882  1.00  0.00     0.158 C
ATOM     41  C   UNL     1      31.837  19.115  -6.105  1.00  0.00     0.164 C
ATOM     42  S   UNL     1      31.400  20.706  -5.461  1.00  0.00     0.154 S
ATOM     43  O   UNL     1      32.164  21.689  -6.209  1.00  0.00    -0.229 OA
ATOM     44  O   UNL     1      31.506  20.653  -4.013  1.00  0.00    -0.229 OA
BRANCH  39  45
ATOM     45  C   UNL     1      30.955  17.439  -4.400  1.00  0.00     0.186 C
BRANCH  45  46
ATOM     46  O   UNL     1      31.639  16.175  -4.508  1.00  0.00    -0.379 OA
BRANCH  46  47
ATOM     47  C   UNL     1      32.228  15.775  -3.263  1.00  0.00     0.169 C
ATOM     48  G   UNL     1      31.146  15.549  -2.196  1.00  0.00     0.000 C
ENDBRANCH  46  47
ENDBRANCH  45  46
ENDBRANCH  39  45
ENDBRANCH  36  37
ENDBRANCH  10  31
TORSDOF 2
ENDMDL
MODEL 3
REMARK VINA RESULT:      -8.7      0.778      1.173
REMARK SMILES NC(=O)c1cnc2c3c1[nH]c1cc(ccc13)-c1ccc(nn1)N1CCS(=O)(=O)C[C@H]1COCC1(CC1)[C@H](C(F)(F)F)N2
REMARK SMILES IDX 4 1 5 2 6 3 7 4 8 5 9 6 10 7 11 8 12 9 13 10 14 11 15 12
REMARK SMILES IDX 16 13 2 15 1 16 3 17 42 20 37 22 34 23 35 24 36 25 38 27
REMARK SMILES IDX 39 28 40 29 41 30 17 31 18 32 22 33 19 34 21 35 20 36 23 37
REMARK SMILES IDX 24 38 30 39 25 40 29 41 26 42 27 43 28 44 31 45 32 46 33 47
REMARK H PARENT 10 14 1 18 1 19 42 21
REMARK Flexibility Score:   57.900
ROOT
ATOM      1  C   UNL     1      31.339   9.095  -3.550  1.00  0.00     0.082 A
ATOM      2  C   UNL     1      31.154   7.903  -4.243  1.00  0.00     0.129 A
ATOM      3  N   UNL     1      30.260   7.701  -5.250  1.00  0.00    -0.238 NA
ATOM      4  C   UNL     1      29.448   8.714  -5.630  1.00  0.00     0.136 A
ATOM      5  C   UNL     1      29.473   9.917  -4.889  1.00  0.00     0.051 A
ATOM      6  C   UNL     1      30.462  10.116  -3.930  1.00  0.00     0.065 A
ATOM      7  N   UNL     1      30.388  11.441  -3.541  1.00  0.00    -0.354 N
ATOM      8  C   UNL     1      29.393  12.095  -4.232  1.00  0.00     0.047 A
ATOM      9  C   UNL     1      29.076  13.462  -4.343  1.00  0.00     0.037 A
ATOM     10  C   UNL     1      28.007  13.809  -5.194  1.00  0.00     0.004 A
ATOM     11  C   UNL     1      27.179  12.792  -5.711  1.00  0.00     0.011 A
ATOM     12  C   UNL     1      27.514  11.452  -5.596  1.00  0.00     0.012 A
ATOM     13  C   UNL     1      28.698  11.113  -4.933  1.00  0.00     0.011 A
ATOM     14  H   UNL     1      31.045  11.866  -2.897  1.00  0.00     0.167 HD
ENDROOT
BRANCH   1  15
ATOM     15  C   UNL     1      32.367   9.331  -2.518  1.00  0.00     0.252 C
ATOM     16  N   UNL     1      33.471  10.066  -2.841  1.00  0.00    -0.365 N
ATOM     17  O   UNL     1      32.239   8.863  -1.390  1.00  0.00    -0.269 OA
ATOM     18  H   UNL     1      34.158  10.205  -2.109  1.00  0.00     0.159 HD
ATOM     19  H   UNL     1      33.682  10.446  -3.751  1.00  0.00     0.159 HD
ENDBRANCH   1  15
BRANCH   4  20
ATOM     20  N   UNL     1      28.737   8.547  -6.819  1.00  0.00    -0.358 N
ATOM     21  H   UNL     1      28.715   9.421  -7.337  1.00  0.00     0.162 HD
BRANCH  20  22
ATOM     22  C   UNL     1      27.395   7.909  -6.651  1.00  0.00     0.195 C
BRANCH  22  23
ATOM     23  C   UNL     1      27.483   6.358  -6.649  1.00  0.00     0.023 C
ATOM     24  C   UNL     1      26.275   5.500  -6.273  1.00  0.00     0.012 C
ATOM     25  C   UNL     1      27.409   5.631  -5.310  1.00  0.00     0.012 C
ATOM     26  G   UNL     1      28.475   5.807  -7.685  1.00  0.00     0.000 C
ENDBRANCH  22  23
BRANCH  22  27
ATOM     27  C   UNL     1      26.366   8.418  -7.709  1.00  0.00     0.409 C
ATOM     28  F   UNL     1      26.412   7.685  -8.846  1.00  0.00    -0.169 F
ATOM     29  F   UNL     1      25.098   8.369  -7.237  1.00  0.00    -0.169 F
ATOM     30  F   UNL     1      26.610   9.702  -8.069  1.00  0.00    -0.169 F
ENDBRANCH  22  27
ENDBRANCH  20  22
ENDBRANCH   4  20
BRANCH  10  31
ATOM     31  C   UNL     1      27.878  15.137  -5.837  1.00  0.00     0.093 A
ATOM     32  C   UNL     1      27.752  16.234  -4.990  1.00  0.00     0.035 A
ATOM     33  N   UNL     1      28.532  15.262  -7.017  1.00  0.00    -0.148 NA
ATOM     34  C   UNL     1      28.639  17.288  -5.171  1.00  0.00     0.051 A
ATOM     35  N   UNL     1      29.387  16.306  -7.198  1.00  0.00    -0.132 NA
ATOM     36  C   UNL     1      29.554  17.209  -6.209  1.00  0.00     0.151 A
BRANCH  36  37
ATOM     37  N   UNL     1      30.815  17.817  -6.028  1.00  0.00    -0.348 N
ATOM     38  C   UNL     1      30.820  19.234  -6.371  1.00  0.00     0.135 C
ATOM     39  C   UNL     1      31.903  16.943  -6.570  1.00  0.00     0.124 C
ATOM     40  C   UNL     1      31.998  19.892  -5.692  1.00  0.00     0.158 C
ATOM     41  C   UNL     1      33.047  17.737  -7.184  1.00  0.00     0.164 C
ATOM     42  S   UNL     1      33.522  19.125  -6.191  1.00  0.00     0.154 S
ATOM     43  O   UNL     1      34.208  20.057  -7.068  1.00  0.00    -0.229 OA
ATOM     44  O   UNL     1      34.186  18.624  -5.001  1.00  0.00    -0.229 OA
BRANCH  39  45
ATOM     45  C   UNL     1      32.406  15.914  -5.523  1.00  0.00     0.186 C
BRANCH  45  46
ATOM     46  O   UNL     1      32.042  16.355  -4.201  1.00  0.00    -0.379 OA
BRANCH  46  47
ATOM     47  C   UNL     1      32.476  15.436  -3.190  1.00  0.00     0.169 C
ATOM     48  G   UNL     1      32.873  14.088  -3.812  1.00  0.00     0.000 C
ENDBRANCH  46  47
ENDBRANCH  45  46
ENDBRANCH  39  45
ENDBRANCH  36  37
ENDBRANCH  10  31
TORSDOF 2
ENDMDL
MODEL 4
REMARK VINA RESULT:      -8.7      2.717      4.754
REMARK SMILES NC(=O)c1cnc2c3c1[nH]c1cc(ccc13)-c1ccc(nn1)N1CCS(=O)(=O)C[C@H]1COCC1(CC1)[C@H](C(F)(F)F)N2
REMARK SMILES IDX 4 1 5 2 6 3 7 4 8 5 9 6 10 7 11 8 12 9 13 10 14 11 15 12
REMARK SMILES IDX 16 13 2 15 1 16 3 17 42 20 37 22 34 23 35 24 36 25 38 27
REMARK SMILES IDX 39 28 40 29 41 30 17 31 18 32 22 33 19 34 21 35 20 36 23 37
REMARK SMILES IDX 24 38 30 39 25 40 29 41 26 42 27 43 28 44 31 45 32 46 33 47
REMARK H PARENT 10 14 1 18 1 19 42 21
REMARK Flexibility Score:   57.900
ROOT
ATOM      1  C   UNL     1      28.440   6.300  -6.396  1.00  0.00     0.082 A
ATOM      2  C   UNL     1      27.245   6.351  -7.106  1.00  0.00     0.129 A
ATOM      3  N   UNL     1      26.513   7.472  -7.349  1.00  0.00    -0.238 NA
ATOM      4  C   UNL     1      26.938   8.661  -6.862  1.00  0.00     0.136 A
ATOM      5  C   UNL     1      28.069   8.680  -6.014  1.00  0.00     0.051 A
ATOM      6  C   UNL     1      28.839   7.531  -5.866  1.00  0.00     0.065 A
ATOM      7  N   UNL     1      29.986   7.897  -5.185  1.00  0.00    -0.354 N
ATOM      8  C   UNL     1      29.976   9.246  -4.908  1.00  0.00     0.047 A
ATOM      9  C   UNL     1      30.982  10.110  -4.435  1.00  0.00     0.037 A
ATOM     10  C   UNL     1      30.653  11.475  -4.311  1.00  0.00     0.004 A
ATOM     11  C   UNL     1      29.309  11.876  -4.446  1.00  0.00     0.011 A
ATOM     12  C   UNL     1      28.335  11.010  -4.920  1.00  0.00     0.012 A
ATOM     13  C   UNL     1      28.707   9.703  -5.252  1.00  0.00     0.011 A
ATOM     14  H   UNL     1      30.751   7.257  -5.004  1.00  0.00     0.167 HD
ENDROOT
BRANCH   1  15
ATOM     15  C   UNL     1      29.270   5.094  -6.208  1.00  0.00     0.252 C
ATOM     16  N   UNL     1      29.284   4.485  -4.986  1.00  0.00    -0.365 N
ATOM     17  O   UNL     1      29.948   4.654  -7.132  1.00  0.00    -0.269 OA
ATOM     18  H   UNL     1      29.868   3.663  -4.893  1.00  0.00     0.159 HD
ATOM     19  H   UNL     1      28.799   4.805  -4.162  1.00  0.00     0.159 HD
ENDBRANCH   1  15
BRANCH   4  20
ATOM     20  N   UNL     1      26.307   9.808  -7.344  1.00  0.00    -0.358 N
ATOM     21  H   UNL     1      25.378   9.576  -7.686  1.00  0.00     0.162 HD
BRANCH  20  22
ATOM     22  C   UNL     1      27.126  10.603  -8.310  1.00  0.00     0.195 C
BRANCH  22  23
ATOM     23  C   UNL     1      26.511  12.004  -8.581  1.00  0.00     0.023 C
ATOM     24  C   UNL     1      27.402  13.221  -8.833  1.00  0.00     0.012 C
ATOM     25  C   UNL     1      26.692  13.089  -7.524  1.00  0.00     0.012 C
ATOM     26  G   UNL     1      25.147  11.940  -9.286  1.00  0.00     0.000 C
ENDBRANCH  22  23
BRANCH  22  27
ATOM     27  C   UNL     1      27.380   9.828  -9.641  1.00  0.00     0.409 C
ATOM     28  F   UNL     1      28.411   8.958  -9.526  1.00  0.00    -0.169 F
ATOM     29  F   UNL     1      26.289   9.125 -10.027  1.00  0.00    -0.169 F
ATOM     30  F   UNL     1      27.697  10.666 -10.659  1.00  0.00    -0.169 F
ENDBRANCH  22  27
ENDBRANCH  20  22
ENDBRANCH   4  20
BRANCH  10  31
ATOM     31  C   UNL     1      31.659  12.560  -4.359  1.00  0.00     0.093 A
ATOM     32  C   UNL     1      31.917  13.123  -5.606  1.00  0.00     0.035 A
ATOM     33  N   UNL     1      31.723  13.325  -3.243  1.00  0.00    -0.148 NA
ATOM     34  C   UNL     1      31.815  14.504  -5.718  1.00  0.00     0.051 A
ATOM     35  N   UNL     1      31.641  14.680  -3.357  1.00  0.00    -0.132 NA
ATOM     36  C   UNL     1      31.519  15.238  -4.580  1.00  0.00     0.151 A
BRANCH  36  37
ATOM     37  N   UNL     1      30.764  16.421  -4.732  1.00  0.00    -0.348 N
ATOM     38  C   UNL     1      29.329  16.177  -4.808  1.00  0.00     0.135 C
ATOM     39  C   UNL     1      31.395  17.320  -5.749  1.00  0.00     0.124 C
ATOM     40  C   UNL     1      28.602  17.456  -4.462  1.00  0.00     0.158 C
ATOM     41  C   UNL     1      30.372  18.097  -6.566  1.00  0.00     0.164 C
ATOM     42  S   UNL     1      29.070  18.765  -5.568  1.00  0.00     0.154 S
ATOM     43  O   UNL     1      27.943  19.009  -6.451  1.00  0.00    -0.229 OA
ATOM     44  O   UNL     1      29.620  19.851  -4.776  1.00  0.00    -0.229 OA
BRANCH  39  45
ATOM     45  C   UNL     1      32.467  18.252  -5.125  1.00  0.00     0.186 C
BRANCH  45  46
ATOM     46  O   UNL     1      33.781  17.774  -5.473  1.00  0.00    -0.379 OA
BRANCH  46  47
ATOM     47  C   UNL     1      34.227  18.296  -6.732  1.00  0.00     0.169 C
ATOM     48  G   UNL     1      34.045  19.821  -6.785  1.00  0.00     0.000 C
ENDBRANCH  46  47
ENDBRANCH  45  46
ENDBRANCH  39  45
ENDBRANCH  36  37
ENDBRANCH  10  31
TORSDOF 2
ENDMDL
MODEL 5
REMARK VINA RESULT:      -8.6      1.201      1.418
REMARK SMILES NC(=O)c1cnc2c3c1[nH]c1cc(ccc13)-c1ccc(nn1)N1CCS(=O)(=O)C[C@H]1COCC1(CC1)[C@H](C(F)(F)F)N2
REMARK SMILES IDX 4 1 5 2 6 3 7 4 8 5 9 6 10 7 11 8 12 9 13 10 14 11 15 12
REMARK SMILES IDX 16 13 2 15 1 16 3 17 42 20 37 22 34 23 35 24 36 25 38 27
REMARK SMILES IDX 39 28 40 29 41 30 17 31 18 32 22 33 19 34 21 35 20 36 23 37
REMARK SMILES IDX 24 38 30 39 25 40 29 41 26 42 27 43 28 44 31 45 32 46 33 47
REMARK H PARENT 10 14 1 18 1 19 42 21
REMARK Flexibility Score:   57.900
ROOT
ATOM      1  C   UNL     1      31.598   9.299  -3.576  1.00  0.00     0.082 A
ATOM      2  C   UNL     1      31.408   7.991  -4.010  1.00  0.00     0.129 A
ATOM      3  N   UNL     1      30.413   7.566  -4.836  1.00  0.00    -0.238 NA
ATOM      4  C   UNL     1      29.498   8.455  -5.286  1.00  0.00     0.136 A
ATOM      5  C   UNL     1      29.536   9.777  -4.786  1.00  0.00     0.051 A
ATOM      6  C   UNL     1      30.619  10.193  -4.018  1.00  0.00     0.065 A
ATOM      7  N   UNL     1      30.508  11.564  -3.871  1.00  0.00    -0.354 N
ATOM      8  C   UNL     1      29.397  12.035  -4.534  1.00  0.00     0.047 A
ATOM      9  C   UNL     1      28.982  13.343  -4.851  1.00  0.00     0.037 A
ATOM     10  C   UNL     1      27.798  13.479  -5.603  1.00  0.00     0.004 A
ATOM     11  C   UNL     1      26.980  12.351  -5.812  1.00  0.00     0.011 A
ATOM     12  C   UNL     1      27.411  11.070  -5.500  1.00  0.00     0.012 A
ATOM     13  C   UNL     1      28.686  10.911  -4.946  1.00  0.00     0.011 A
ATOM     14  H   UNL     1      31.210  12.129  -3.407  1.00  0.00     0.167 HD
ENDROOT
BRANCH   1  15
ATOM     15  C   UNL     1      32.727   9.767  -2.748  1.00  0.00     0.252 C
ATOM     16  N   UNL     1      33.126   9.008  -1.686  1.00  0.00    -0.365 N
ATOM     17  O   UNL     1      33.290  10.828  -3.002  1.00  0.00    -0.269 OA
ATOM     18  H   UNL     1      33.902   9.362  -1.138  1.00  0.00     0.159 HD
ATOM     19  H   UNL     1      32.693   8.152  -1.375  1.00  0.00     0.159 HD
ENDBRANCH   1  15
BRANCH   4  20
ATOM     20  N   UNL     1      28.660   8.037  -6.320  1.00  0.00    -0.358 N
ATOM     21  H   UNL     1      28.247   8.845  -6.780  1.00  0.00     0.162 HD
BRANCH  20  22
ATOM     22  C   UNL     1      27.667   6.991  -5.926  1.00  0.00     0.195 C
BRANCH  22  23
ATOM     23  C   UNL     1      27.810   5.701  -6.778  1.00  0.00     0.023 C
ATOM     24  C   UNL     1      28.809   5.626  -7.934  1.00  0.00     0.012 C
ATOM     25  C   UNL     1      27.349   5.740  -8.232  1.00  0.00     0.012 C
ATOM     26  G   UNL     1      27.511   4.417  -5.988  1.00  0.00     0.000 C
ENDBRANCH  22  23
BRANCH  22  27
ATOM     27  C   UNL     1      26.203   7.531  -5.955  1.00  0.00     0.409 C
ATOM     28  F   UNL     1      25.878   8.163  -4.803  1.00  0.00    -0.169 F
ATOM     29  F   UNL     1      26.012   8.405  -6.972  1.00  0.00    -0.169 F
ATOM     30  F   UNL     1      25.301   6.531  -6.111  1.00  0.00    -0.169 F
ENDBRANCH  22  27
ENDBRANCH  20  22
ENDBRANCH   4  20
BRANCH  10  31
ATOM     31  C   UNL     1      27.509  14.655  -6.455  1.00  0.00     0.093 A
ATOM     32  C   UNL     1      26.749  15.672  -5.884  1.00  0.00     0.035 A
ATOM     33  N   UNL     1      28.474  14.953  -7.358  1.00  0.00    -0.148 NA
ATOM     34  C   UNL     1      27.269  16.960  -5.928  1.00  0.00     0.051 A
ATOM     35  N   UNL     1      28.968  16.221  -7.411  1.00  0.00    -0.132 NA
ATOM     36  C   UNL     1      28.475  17.163  -6.580  1.00  0.00     0.151 A
BRANCH  36  37
ATOM     37  N   UNL     1      29.328  18.176  -6.093  1.00  0.00    -0.348 N
ATOM     38  C   UNL     1      29.115  19.463  -6.744  1.00  0.00     0.135 C
ATOM     39  C   UNL     1      30.728  17.664  -5.955  1.00  0.00     0.124 C
ATOM     40  C   UNL     1      29.669  20.552  -5.854  1.00  0.00     0.158 C
ATOM     41  C   UNL     1      31.778  18.720  -6.268  1.00  0.00     0.164 C
ATOM     42  S   UNL     1      31.399  20.291  -5.541  1.00  0.00     0.154 S
ATOM     43  O   UNL     1      32.131  21.293  -6.295  1.00  0.00    -0.229 OA
ATOM     44  O   UNL     1      31.587  20.182  -4.105  1.00  0.00    -0.229 OA
BRANCH  39  45
ATOM     45  C   UNL     1      30.974  16.990  -4.579  1.00  0.00     0.186 C
BRANCH  45  46
ATOM     46  O   UNL     1      31.318  15.605  -4.775  1.00  0.00    -0.379 OA
BRANCH  46  47
ATOM     47  C   UNL     1      31.848  15.010  -3.583  1.00  0.00     0.169 C
ATOM     48  G   UNL     1      33.275  15.510  -3.312  1.00  0.00     0.000 C
ENDBRANCH  46  47
ENDBRANCH  45  46
ENDBRANCH  39  45
ENDBRANCH  36  37
ENDBRANCH  10  31
TORSDOF 2
ENDMDL
MODEL 6
REMARK VINA RESULT:      -8.5      2.509      3.859
REMARK SMILES NC(=O)c1cnc2c3c1[nH]c1cc(ccc13)-c1ccc(nn1)N1CCS(=O)(=O)C[C@H]1COCC1(CC1)[C@H](C(F)(F)F)N2
REMARK SMILES IDX 4 1 5 2 6 3 7 4 8 5 9 6 10 7 11 8 12 9 13 10 14 11 15 12
REMARK SMILES IDX 16 13 2 15 1 16 3 17 42 20 37 22 34 23 35 24 36 25 38 27
REMARK SMILES IDX 39 28 40 29 41 30 17 31 18 32 22 33 19 34 21 35 20 36 23 37
REMARK SMILES IDX 24 38 30 39 25 40 29 41 26 42 27 43 28 44 31 45 32 46 33 47
REMARK H PARENT 10 14 1 18 1 19 42 21
REMARK Flexibility Score:   57.900
ROOT
ATOM      1  C   UNL     1      33.349   9.371  -2.516  1.00  0.00     0.082 A
ATOM      2  C   UNL     1      32.550   8.384  -3.084  1.00  0.00     0.129 A
ATOM      3  N   UNL     1      31.509   8.598  -3.935  1.00  0.00    -0.238 NA
ATOM      4  C   UNL     1      31.176   9.866  -4.271  1.00  0.00     0.136 A
ATOM      5  C   UNL     1      31.846  10.934  -3.633  1.00  0.00     0.051 A
ATOM      6  C   UNL     1      32.962  10.675  -2.843  1.00  0.00     0.065 A
ATOM      7  N   UNL     1      33.542  11.895  -2.547  1.00  0.00    -0.354 N
ATOM      8  C   UNL     1      32.839  12.922  -3.137  1.00  0.00     0.047 A
ATOM      9  C   UNL     1      33.142  14.286  -3.304  1.00  0.00     0.037 A
ATOM     10  C   UNL     1      32.213  15.070  -4.018  1.00  0.00     0.004 A
ATOM     11  C   UNL     1      30.951  14.528  -4.333  1.00  0.00     0.011 A
ATOM     12  C   UNL     1      30.676  13.179  -4.167  1.00  0.00     0.012 A
ATOM     13  C   UNL     1      31.680  12.350  -3.655  1.00  0.00     0.011 A
ATOM     14  H   UNL     1      34.413  11.985  -2.037  1.00  0.00     0.167 HD
ENDROOT
BRANCH   1  15
ATOM     15  C   UNL     1      34.528   9.128  -1.662  1.00  0.00     0.252 C
ATOM     16  N   UNL     1      35.657   8.609  -2.227  1.00  0.00    -0.365 N
ATOM     17  O   UNL     1      34.490   9.375  -0.460  1.00  0.00    -0.269 OA
ATOM     18  H   UNL     1      36.446   8.451  -1.610  1.00  0.00     0.159 HD
ATOM     19  H   UNL     1      35.761   8.331  -3.191  1.00  0.00     0.159 HD
ENDBRANCH   1  15
BRANCH   4  20
ATOM     20  N   UNL     1      30.282  10.029  -5.330  1.00  0.00    -0.358 N
ATOM     21  H   UNL     1      30.189  11.015  -5.557  1.00  0.00     0.162 HD
BRANCH  20  22
ATOM     22  C   UNL     1      28.977   9.323  -5.150  1.00  0.00     0.195 C
BRANCH  22  23
ATOM     23  C   UNL     1      28.839   8.102  -6.101  1.00  0.00     0.023 C
ATOM     24  C   UNL     1      27.889   6.950  -5.772  1.00  0.00     0.012 C
ATOM     25  C   UNL     1      29.362   6.750  -5.623  1.00  0.00     0.012 C
ATOM     26  G   UNL     1      29.072   8.455  -7.578  1.00  0.00     0.000 C
ENDBRANCH  22  23
BRANCH  22  27
ATOM     27  C   UNL     1      27.761  10.292  -5.290  1.00  0.00     0.409 C
ATOM     28  F   UNL     1      27.583  10.692  -6.571  1.00  0.00    -0.169 F
ATOM     29  F   UNL     1      26.609   9.712  -4.876  1.00  0.00    -0.169 F
ATOM     30  F   UNL     1      27.929  11.419  -4.555  1.00  0.00    -0.169 F
ENDBRANCH  22  27
ENDBRANCH  20  22
ENDBRANCH   4  20
BRANCH  10  31
ATOM     31  C   UNL     1      32.579  16.314  -4.733  1.00  0.00     0.093 A
ATOM     32  C   UNL     1      32.556  16.267  -6.124  1.00  0.00     0.035 A
ATOM     33  N   UNL     1      32.253  17.458  -4.086  1.00  0.00    -0.148 NA
ATOM     34  C   UNL     1      31.809  17.235  -6.784  1.00  0.00     0.051 A
ATOM     35  N   UNL     1      31.536  18.413  -4.742  1.00  0.00    -0.132 NA
ATOM     36  C   UNL     1      31.181  18.213  -6.029  1.00  0.00     0.151 A
BRANCH  36  37
ATOM     37  N   UNL     1      29.956  18.730  -6.500  1.00  0.00    -0.348 N
ATOM     38  C   UNL     1      29.807  20.160  -6.259  1.00  0.00     0.135 C
ATOM     39  C   UNL     1      28.825  17.818  -6.135  1.00  0.00     0.124 C
ATOM     40  C   UNL     1      28.762  20.704  -7.205  1.00  0.00     0.158 C
ATOM     41  C   UNL     1      27.540  18.569  -5.819  1.00  0.00     0.164 C
ATOM     42  S   UNL     1      27.210  19.869  -6.976  1.00  0.00     0.154 S
ATOM     43  O   UNL     1      26.311  20.802  -6.319  1.00  0.00    -0.229 OA
ATOM     44  O   UNL     1      26.831  19.265  -8.241  1.00  0.00    -0.229 OA
BRANCH  39  45
ATOM     45  C   UNL     1      28.603  16.705  -7.193  1.00  0.00     0.186 C
BRANCH  45  46
ATOM     46  O   UNL     1      28.980  15.430  -6.637  1.00  0.00    -0.379 OA
BRANCH  46  47
ATOM     47  C   UNL     1      27.911  14.477  -6.705  1.00  0.00     0.169 C
ATOM     48  G   UNL     1      26.927  14.678  -5.542  1.00  0.00     0.000 C
ENDBRANCH  46  47
ENDBRANCH  45  46
ENDBRANCH  39  45
ENDBRANCH  36  37
ENDBRANCH  10  31
TORSDOF 2
ENDMDL
MODEL 7
REMARK VINA RESULT:      -8.4      1.376      2.460
REMARK SMILES NC(=O)c1cnc2c3c1[nH]c1cc(ccc13)-c1ccc(nn1)N1CCS(=O)(=O)C[C@H]1COCC1(CC1)[C@H](C(F)(F)F)N2
REMARK SMILES IDX 4 1 5 2 6 3 7 4 8 5 9 6 10 7 11 8 12 9 13 10 14 11 15 12
REMARK SMILES IDX 16 13 2 15 1 16 3 17 42 20 37 22 34 23 35 24 36 25 38 27
REMARK SMILES IDX 39 28 40 29 41 30 17 31 18 32 22 33 19 34 21 35 20 36 23 37
REMARK SMILES IDX 24 38 30 39 25 40 29 41 26 42 27 43 28 44 31 45 32 46 33 47
REMARK H PARENT 10 14 1 18 1 19 42 21
REMARK Flexibility Score:   57.900
ROOT
ATOM      1  C   UNL     1      31.766   9.166  -3.417  1.00  0.00     0.082 A
ATOM      2  C   UNL     1      31.587   7.907  -3.982  1.00  0.00     0.129 A
ATOM      3  N   UNL     1      30.615   7.567  -4.871  1.00  0.00    -0.238 NA
ATOM      4  C   UNL     1      29.711   8.499  -5.254  1.00  0.00     0.136 A
ATOM      5  C   UNL     1      29.736   9.765  -4.626  1.00  0.00     0.051 A
ATOM      6  C   UNL     1      30.798  10.101  -3.794  1.00  0.00     0.065 A
ATOM      7  N   UNL     1      30.683  11.451  -3.515  1.00  0.00    -0.354 N
ATOM      8  C   UNL     1      29.590  11.988  -4.157  1.00  0.00     0.047 A
ATOM      9  C   UNL     1      29.183  13.321  -4.354  1.00  0.00     0.037 A
ATOM     10  C   UNL     1      28.018  13.533  -5.119  1.00  0.00     0.004 A
ATOM     11  C   UNL     1      27.206  12.433  -5.460  1.00  0.00     0.011 A
ATOM     12  C   UNL     1      27.630  11.127  -5.263  1.00  0.00     0.012 A
ATOM     13  C   UNL     1      28.890  10.911  -4.696  1.00  0.00     0.011 A
ATOM     14  H   UNL     1      31.373  11.967  -2.980  1.00  0.00     0.167 HD
ENDROOT
BRANCH   1  15
ATOM     15  C   UNL     1      32.874   9.548  -2.518  1.00  0.00     0.252 C
ATOM     16  N   UNL     1      33.528  10.725  -2.740  1.00  0.00    -0.365 N
ATOM     17  O   UNL     1      33.209   8.812  -1.594  1.00  0.00    -0.269 OA
ATOM     18  H   UNL     1      34.285  10.953  -2.106  1.00  0.00     0.159 HD
ATOM     19  H   UNL     1      33.353  11.364  -3.500  1.00  0.00     0.159 HD
ENDBRANCH   1  15
BRANCH   4  20
ATOM     20  N   UNL     1      28.900   8.187  -6.347  1.00  0.00    -0.358 N
ATOM     21  H   UNL     1      28.648   9.036  -6.846  1.00  0.00     0.162 HD
BRANCH  20  22
ATOM     22  C   UNL     1      27.736   7.308  -6.019  1.00  0.00     0.195 C
BRANCH  22  23
ATOM     23  C   UNL     1      28.029   5.814  -6.324  1.00  0.00     0.023 C
ATOM     24  C   UNL     1      27.082   4.711  -5.850  1.00  0.00     0.012 C
ATOM     25  C   UNL     1      28.395   4.896  -5.161  1.00  0.00     0.012 C
ATOM     26  G   UNL     1      28.792   5.604  -7.641  1.00  0.00     0.000 C
ENDBRANCH  22  23
BRANCH  22  27
ATOM     27  C   UNL     1      26.425   7.784  -6.721  1.00  0.00     0.409 C
ATOM     28  F   UNL     1      26.002   6.895  -7.649  1.00  0.00    -0.169 F
ATOM     29  F   UNL     1      25.418   7.964  -5.833  1.00  0.00    -0.169 F
ATOM     30  F   UNL     1      26.602   8.962  -7.370  1.00  0.00    -0.169 F
ENDBRANCH  22  27
ENDBRANCH  20  22
ENDBRANCH   4  20
BRANCH  10  31
ATOM     31  C   UNL     1      27.750  14.788  -5.859  1.00  0.00     0.093 A
ATOM     32  C   UNL     1      27.646  15.952  -5.102  1.00  0.00     0.035 A
ATOM     33  N   UNL     1      28.274  14.834  -7.107  1.00  0.00    -0.148 NA
ATOM     34  C   UNL     1      28.448  17.026  -5.466  1.00  0.00     0.051 A
ATOM     35  N   UNL     1      29.046  15.898  -7.467  1.00  0.00    -0.132 NA
ATOM     36  C   UNL     1      29.259  16.895  -6.583  1.00  0.00     0.151 A
BRANCH  36  37
ATOM     37  N   UNL     1      30.493  17.578  -6.590  1.00  0.00    -0.348 N
ATOM     38  C   UNL     1      31.640  16.687  -6.466  1.00  0.00     0.135 C
ATOM     39  C   UNL     1      30.428  18.791  -5.714  1.00  0.00     0.124 C
ATOM     40  C   UNL     1      32.867  17.403  -6.979  1.00  0.00     0.158 C
ATOM     41  C   UNL     1      31.743  19.077  -5.003  1.00  0.00     0.164 C
ATOM     42  S   UNL     1      33.145  18.905  -6.071  1.00  0.00     0.154 S
ATOM     43  O   UNL     1      34.301  18.688  -5.219  1.00  0.00    -0.229 OA
ATOM     44  O   UNL     1      33.135  20.011  -7.012  1.00  0.00    -0.229 OA
BRANCH  39  45
ATOM     45  C   UNL     1      29.896  20.035  -6.472  1.00  0.00     0.186 C
BRANCH  45  46
ATOM     46  O   UNL     1      28.530  20.287  -6.086  1.00  0.00    -0.379 OA
BRANCH  46  47
ATOM     47  C   UNL     1      27.694  20.560  -7.219  1.00  0.00     0.169 C
ATOM     48  G   UNL     1      26.329  21.105  -6.770  1.00  0.00     0.000 C
ENDBRANCH  46  47
ENDBRANCH  45  46
ENDBRANCH  39  45
ENDBRANCH  36  37
ENDBRANCH  10  31
TORSDOF 2
ENDMDL
MODEL 8
REMARK VINA RESULT:      -8.4      1.723      2.100
REMARK SMILES NC(=O)c1cnc2c3c1[nH]c1cc(ccc13)-c1ccc(nn1)N1CCS(=O)(=O)C[C@H]1COCC1(CC1)[C@H](C(F)(F)F)N2
REMARK SMILES IDX 4 1 5 2 6 3 7 4 8 5 9 6 10 7 11 8 12 9 13 10 14 11 15 12
REMARK SMILES IDX 16 13 2 15 1 16 3 17 42 20 37 22 34 23 35 24 36 25 38 27
REMARK SMILES IDX 39 28 40 29 41 30 17 31 18 32 22 33 19 34 21 35 20 36 23 37
REMARK SMILES IDX 24 38 30 39 25 40 29 41 26 42 27 43 28 44 31 45 32 46 33 47
REMARK H PARENT 10 14 1 18 1 19 42 21
REMARK Flexibility Score:   57.900
ROOT
ATOM      1  C   UNL     1      31.640   9.470  -3.779  1.00  0.00     0.082 A
ATOM      2  C   UNL     1      31.256   8.171  -4.093  1.00  0.00     0.129 A
ATOM      3  N   UNL     1      30.112   7.815  -4.738  1.00  0.00    -0.238 NA
ATOM      4  C   UNL     1      29.233   8.776  -5.109  1.00  0.00     0.136 A
ATOM      5  C   UNL     1      29.478  10.109  -4.709  1.00  0.00     0.051 A
ATOM      6  C   UNL     1      30.700  10.443  -4.134  1.00  0.00     0.065 A
ATOM      7  N   UNL     1      30.751  11.823  -4.064  1.00  0.00    -0.354 N
ATOM      8  C   UNL     1      29.606  12.379  -4.590  1.00  0.00     0.047 A
ATOM      9  C   UNL     1      29.282  13.705  -4.929  1.00  0.00     0.037 A
ATOM     10  C   UNL     1      28.018  13.932  -5.512  1.00  0.00     0.004 A
ATOM     11  C   UNL     1      27.069  12.890  -5.526  1.00  0.00     0.011 A
ATOM     12  C   UNL     1      27.412  11.588  -5.194  1.00  0.00     0.012 A
ATOM     13  C   UNL     1      28.733  11.319  -4.820  1.00  0.00     0.011 A
ATOM     14  H   UNL     1      31.568  12.331  -3.744  1.00  0.00     0.167 HD
ENDROOT
BRANCH   1  15
ATOM     15  C   UNL     1      32.922   9.854  -3.154  1.00  0.00     0.252 C
ATOM     16  N   UNL     1      33.484   9.018  -2.234  1.00  0.00    -0.365 N
ATOM     17  O   UNL     1      33.466  10.915  -3.448  1.00  0.00    -0.269 OA
ATOM     18  H   UNL     1      34.362   9.315  -1.823  1.00  0.00     0.159 HD
ATOM     19  H   UNL     1      33.085   8.155  -1.898  1.00  0.00     0.159 HD
ENDBRANCH   1  15
BRANCH   4  20
ATOM     20  N   UNL     1      28.212   8.399  -5.983  1.00  0.00    -0.358 N
ATOM     21  H   UNL     1      27.597   7.728  -5.530  1.00  0.00     0.162 HD
BRANCH  20  22
ATOM     22  C   UNL     1      28.685   7.971  -7.336  1.00  0.00     0.195 C
BRANCH  22  23
ATOM     23  C   UNL     1      27.914   8.691  -8.477  1.00  0.00     0.023 C
ATOM     24  C   UNL     1      26.985   9.868  -8.180  1.00  0.00     0.012 C
ATOM     25  C   UNL     1      26.396   8.540  -8.531  1.00  0.00     0.012 C
ATOM     26  G   UNL     1      28.663   8.673  -9.818  1.00  0.00     0.000 C
ENDBRANCH  22  23
BRANCH  22  27
ATOM     27  C   UNL     1      28.639   6.421  -7.510  1.00  0.00     0.409 C
ATOM     28  F   UNL     1      27.907   5.828  -6.537  1.00  0.00    -0.169 F
ATOM     29  F   UNL     1      28.103   6.067  -8.702  1.00  0.00    -0.169 F
ATOM     30  F   UNL     1      29.877   5.871  -7.448  1.00  0.00    -0.169 F
ENDBRANCH  22  27
ENDBRANCH  20  22
ENDBRANCH   4  20
BRANCH  10  31
ATOM     31  C   UNL     1      27.724  15.087  -6.389  1.00  0.00     0.093 A
ATOM     32  C   UNL     1      26.924  16.093  -5.855  1.00  0.00     0.035 A
ATOM     33  N   UNL     1      28.707  15.397  -7.269  1.00  0.00    -0.148 NA
ATOM     34  C   UNL     1      27.412  17.394  -5.904  1.00  0.00     0.051 A
ATOM     35  N   UNL     1      29.170  16.677  -7.327  1.00  0.00    -0.132 NA
ATOM     36  C   UNL     1      28.631  17.618  -6.524  1.00  0.00     0.151 A
BRANCH  36  37
ATOM     37  N   UNL     1      29.444  18.659  -6.030  1.00  0.00    -0.348 N
ATOM     38  C   UNL     1      29.311  19.897  -6.787  1.00  0.00     0.135 C
ATOM     39  C   UNL     1      30.818  18.151  -5.719  1.00  0.00     0.124 C
ATOM     40  C   UNL     1      29.788  21.044  -5.927  1.00  0.00     0.158 C
ATOM     41  C   UNL     1      31.905  19.178  -6.001  1.00  0.00     0.164 C
ATOM     42  S   UNL     1      31.476  20.798  -5.428  1.00  0.00     0.154 S
ATOM     43  O   UNL     1      32.290  21.740  -6.175  1.00  0.00    -0.229 OA
ATOM     44  O   UNL     1      31.521  20.791  -3.976  1.00  0.00    -0.229 OA
BRANCH  39  45
ATOM     45  C   UNL     1      30.920  17.577  -4.281  1.00  0.00     0.186 C
BRANCH  45  46
ATOM     46  O   UNL     1      32.162  16.861  -4.135  1.00  0.00    -0.379 OA
BRANCH  46  47
ATOM     47  C   UNL     1      32.029  15.725  -3.270  1.00  0.00     0.169 C
ATOM     48  G   UNL     1      33.327  14.904  -3.244  1.00  0.00     0.000 C
ENDBRANCH  46  47
ENDBRANCH  45  46
ENDBRANCH  39  45
ENDBRANCH  36  37
ENDBRANCH  10  31
TORSDOF 2
ENDMDL
MODEL 9
REMARK VINA RESULT:      -8.3      2.837      4.979
REMARK SMILES NC(=O)c1cnc2c3c1[nH]c1cc(ccc13)-c1ccc(nn1)N1CCS(=O)(=O)C[C@H]1COCC1(CC1)[C@H](C(F)(F)F)N2
REMARK SMILES IDX 4 1 5 2 6 3 7 4 8 5 9 6 10 7 11 8 12 9 13 10 14 11 15 12
REMARK SMILES IDX 16 13 2 15 1 16 3 17 42 20 37 22 34 23 35 24 36 25 38 27
REMARK SMILES IDX 39 28 40 29 41 30 17 31 18 32 22 33 19 34 21 35 20 36 23 37
REMARK SMILES IDX 24 38 30 39 25 40 29 41 26 42 27 43 28 44 31 45 32 46 33 47
REMARK H PARENT 10 14 1 18 1 19 42 21
REMARK Flexibility Score:   57.900
ROOT
ATOM      1  C   UNL     1      28.363   6.539  -7.027  1.00  0.00     0.082 A
ATOM      2  C   UNL     1      27.182   6.680  -7.749  1.00  0.00     0.129 A
ATOM      3  N   UNL     1      26.462   7.828  -7.877  1.00  0.00    -0.238 NA
ATOM      4  C   UNL     1      26.886   8.950  -7.251  1.00  0.00     0.136 A
ATOM      5  C   UNL     1      28.001   8.864  -6.385  1.00  0.00     0.051 A
ATOM      6  C   UNL     1      28.760   7.699  -6.354  1.00  0.00     0.065 A
ATOM      7  N   UNL     1      29.896   7.976  -5.615  1.00  0.00    -0.354 N
ATOM      8  C   UNL     1      29.891   9.285  -5.188  1.00  0.00     0.047 A
ATOM      9  C   UNL     1      30.893  10.081  -4.603  1.00  0.00     0.037 A
ATOM     10  C   UNL     1      30.570  11.427  -4.332  1.00  0.00     0.004 A
ATOM     11  C   UNL     1      29.232  11.852  -4.445  1.00  0.00     0.011 A
ATOM     12  C   UNL     1      28.261  11.053  -5.032  1.00  0.00     0.012 A
ATOM     13  C   UNL     1      28.631   9.789  -5.502  1.00  0.00     0.011 A
ATOM     14  H   UNL     1      30.653   7.313  -5.495  1.00  0.00     0.167 HD
ENDROOT
BRANCH   1  15
ATOM     15  C   UNL     1      29.182   5.312  -6.961  1.00  0.00     0.252 C
ATOM     16  N   UNL     1      29.111   4.416  -7.988  1.00  0.00    -0.365 N
ATOM     17  O   UNL     1      29.905   5.096  -5.993  1.00  0.00    -0.269 OA
ATOM     18  H   UNL     1      29.684   3.583  -7.907  1.00  0.00     0.159 HD
ATOM     19  H   UNL     1      28.511   4.488  -8.795  1.00  0.00     0.159 HD
ENDBRANCH   1  15
BRANCH   4  20
ATOM     20  N   UNL     1      26.272  10.150  -7.612  1.00  0.00    -0.358 N
ATOM     21  H   UNL     1      25.275  10.003  -7.745  1.00  0.00     0.162 HD
BRANCH  20  22
ATOM     22  C   UNL     1      26.935  10.866  -8.745  1.00  0.00     0.195 C
BRANCH  22  23
ATOM     23  C   UNL     1      26.505  12.357  -8.824  1.00  0.00     0.023 C
ATOM     24  C   UNL     1      27.372  13.391  -9.544  1.00  0.00     0.012 C
ATOM     25  C   UNL     1      27.322  13.387  -8.050  1.00  0.00     0.012 C
ATOM     26  G   UNL     1      24.980  12.547  -8.837  1.00  0.00     0.000 C
ENDBRANCH  22  23
BRANCH  22  27
ATOM     27  C   UNL     1      26.714  10.139 -10.109  1.00  0.00     0.409 C
ATOM     28  F   UNL     1      25.519   9.505 -10.152  1.00  0.00    -0.169 F
ATOM     29  F   UNL     1      26.760  11.003 -11.150  1.00  0.00    -0.169 F
ATOM     30  F   UNL     1      27.659   9.192 -10.332  1.00  0.00    -0.169 F
ENDBRANCH  22  27
ENDBRANCH  20  22
ENDBRANCH   4  20
BRANCH  10  31
ATOM     31  C   UNL     1      31.585  12.502  -4.239  1.00  0.00     0.093 A
ATOM     32  C   UNL     1      32.170  12.917  -5.432  1.00  0.00     0.035 A
ATOM     33  N   UNL     1      31.379  13.391  -3.238  1.00  0.00    -0.148 NA
ATOM     34  C   UNL     1      32.139  14.276  -5.721  1.00  0.00     0.051 A
ATOM     35  N   UNL     1      31.367  14.723  -3.521  1.00  0.00    -0.132 NA
ATOM     36  C   UNL     1      31.580  15.136  -4.788  1.00  0.00     0.151 A
BRANCH  36  37
ATOM     37  N   UNL     1      30.923  16.291  -5.263  1.00  0.00    -0.348 N
ATOM     38  C   UNL     1      31.763  17.481  -5.229  1.00  0.00     0.135 C
ATOM     39  C   UNL     1      29.536  16.374  -4.703  1.00  0.00     0.124 C
ATOM     40  C   UNL     1      31.193  18.503  -6.186  1.00  0.00     0.158 C
ATOM     41  C   UNL     1      29.094  17.805  -4.432  1.00  0.00     0.164 C
ATOM     42  S   UNL     1      29.519  18.910  -5.749  1.00  0.00     0.154 S
ATOM     43  O   UNL     1      29.532  20.250  -5.189  1.00  0.00    -0.229 OA
ATOM     44  O   UNL     1      28.669  18.606  -6.887  1.00  0.00    -0.229 OA
BRANCH  39  45
ATOM     45  C   UNL     1      28.506  15.602  -5.569  1.00  0.00     0.186 C
BRANCH  45  46
ATOM     46  O   UNL     1      27.582  14.905  -4.711  1.00  0.00    -0.379 OA
BRANCH  46  47
ATOM     47  C   UNL     1      26.221  15.271  -4.978  1.00  0.00     0.169 C
ATOM     48  G   UNL     1      25.349  14.022  -5.175  1.00  0.00     0.000 C
ENDBRANCH  46  47
ENDBRANCH  45  46
ENDBRANCH  39  45
ENDBRANCH  36  37
ENDBRANCH  10  31
TORSDOF 2
ENDMDL
