MODEL 1
REMARK VINA RESULT:      -7.8      0.000      0.000
REMARK SMILES CC(C)(C)[C@H]1NC(=O)c2c[nH]c3ncc(nc23)[C@]2(CCCCCC[C@@]3(C#N)CN(C3)C1=O)CC2
REMARK SMILES IDX 6 1 7 2 8 3 5 5 2 6 1 7 3 8 4 9 31 10 32 11 29 12 28 13
REMARK SMILES IDX 30 14 25 15 26 16 27 17 24 18 23 19 22 20 9 22 10 23 17 24
REMARK SMILES IDX 11 25 16 26 12 27 15 28 13 29 14 30 18 32 34 33 33 34 19 35
REMARK SMILES IDX 20 36 21 37
REMARK H PARENT 6 4 11 31
REMARK Flexibility Score:   84.900
ROOT
ATOM      1  N   UNL     1      29.851  15.289  -4.715  1.00  0.00    -0.340 N
ATOM      2  C   UNL     1      28.491  15.140  -4.890  1.00  0.00     0.255 C
ATOM      3  O   UNL     1      27.890  14.133  -4.537  1.00  0.00    -0.269 OA
ATOM      4  H   UNL     1      30.306  16.105  -5.096  1.00  0.00     0.164 HD
ENDROOT
BRANCH   1   5
ATOM      5  C   UNL     1      30.622  14.319  -3.939  1.00  0.00     0.177 C
BRANCH   5   6
ATOM      6  C   UNL     1      31.649  15.022  -2.984  1.00  0.00    -0.009 C
ATOM      7  C   UNL     1      30.972  15.439  -1.660  1.00  0.00     0.013 C
ATOM      8  C   UNL     1      32.176  16.316  -3.648  1.00  0.00     0.013 C
ATOM      9  C   UNL     1      32.850  14.121  -2.649  1.00  0.00     0.013 C
ENDBRANCH   5   6
BRANCH   5  10
ATOM     10  C   UNL     1      31.265  13.190  -4.793  1.00  0.00     0.245 C
ATOM     11  O   UNL     1      31.718  13.444  -5.916  1.00  0.00    -0.272 OA
BRANCH  10  12
ATOM     12  N   UNL     1      31.199  11.892  -4.377  1.00  0.00    -0.338 N
ATOM     13  C   UNL     1      32.184  10.850  -4.597  1.00  0.00     0.143 C
ATOM     14  C   UNL     1      30.262  11.054  -3.666  1.00  0.00     0.143 C
ATOM     15  C   UNL     1      31.335   9.936  -3.684  1.00  0.00     0.092 C
ATOM     16  C   UNL     1      30.910   8.719  -4.351  1.00  0.00     0.073 C
ATOM     17  N   UNL     1      30.555   7.749  -4.883  1.00  0.00    -0.198 NA
BRANCH  15  18
ATOM     18  C   UNL     1      32.015   9.674  -2.327  1.00  0.00     0.026 C
BRANCH  18  19
ATOM     19  C   UNL     1      33.004   8.501  -2.376  1.00  0.00     0.002 C
BRANCH  19  20
ATOM     20  C   UNL     1      34.462   8.969  -2.354  1.00  0.00     0.000 C
ATOM     21  G   UNL     1      34.591  10.447  -1.978  1.00  0.00     0.000 C
ENDBRANCH  19  20
ENDBRANCH  18  19
ENDBRANCH  15  18
ENDBRANCH  10  12
ENDBRANCH   5  10
ENDBRANCH   1   5
BRANCH   2  22
ATOM     22  C   UNL     1      27.849  16.268  -5.544  1.00  0.00     0.085 A
ATOM     23  C   UNL     1      26.562  16.297  -6.075  1.00  0.00     0.100 A
ATOM     24  C   UNL     1      28.416  17.549  -5.797  1.00  0.00     0.120 A
ATOM     25  N   UNL     1      26.359  17.526  -6.653  1.00  0.00    -0.344 N
ATOM     26  N   UNL     1      29.621  18.075  -5.457  1.00  0.00    -0.246 NA
ATOM     27  C   UNL     1      27.471  18.297  -6.489  1.00  0.00     0.156 A
ATOM     28  C   UNL     1      29.825  19.354  -5.862  1.00  0.00     0.066 A
ATOM     29  N   UNL     1      27.613  19.563  -6.925  1.00  0.00    -0.235 NA
ATOM     30  C   UNL     1      28.837  20.046  -6.583  1.00  0.00     0.138 A
ATOM     31  H   UNL     1      25.528  17.836  -7.140  1.00  0.00     0.168 HD
BRANCH  28  32
ATOM     32  C   UNL     1      31.148  20.035  -5.504  1.00  0.00     0.014 C
ATOM     33  C   UNL     1      31.284  20.550  -4.075  1.00  0.00     0.014 C
ATOM     34  C   UNL     1      31.147  21.526  -5.201  1.00  0.00     0.014 C
BRANCH  32  35
ATOM     35  C   UNL     1      32.389  19.437  -6.157  1.00  0.00     0.013 C
BRANCH  35  36
ATOM     36  C   UNL     1      32.235  18.000  -6.666  1.00  0.00     0.001 C
BRANCH  36  37
ATOM     37  C   UNL     1      33.501  17.411  -7.290  1.00  0.00     0.000 C
ATOM     38  G   UNL     1      34.736  17.701  -6.432  1.00  0.00     0.000 C
ENDBRANCH  36  37
ENDBRANCH  35  36
ENDBRANCH  32  35
ENDBRANCH  28  32
ENDBRANCH   2  22
TORSDOF 1
ENDMDL
MODEL 2
REMARK VINA RESULT:      -7.6      2.305      4.806
REMARK SMILES CC(C)(C)[C@H]1NC(=O)c2c[nH]c3ncc(nc23)[C@]2(CCCCCC[C@@]3(C#N)CN(C3)C1=O)CC2
REMARK SMILES IDX 6 1 7 2 8 3 5 5 2 6 1 7 3 8 4 9 31 10 32 11 29 12 28 13
REMARK SMILES IDX 30 14 25 15 26 16 27 17 24 18 23 19 22 20 9 22 10 23 17 24
REMARK SMILES IDX 11 25 16 26 12 27 15 28 13 29 14 30 18 32 34 33 33 34 19 35
REMARK SMILES IDX 20 36 21 37
REMARK H PARENT 6 4 11 31
REMARK Flexibility Score:   84.900
ROOT
ATOM      1  N   UNL     1      31.560  16.853  -4.494  1.00  0.00    -0.340 N
ATOM      2  C   UNL     1      32.300  17.774  -5.206  1.00  0.00     0.255 C
ATOM      3  O   UNL     1      33.431  17.535  -5.610  1.00  0.00    -0.269 OA
ATOM      4  H   UNL     1      30.666  17.131  -4.118  1.00  0.00     0.164 HD
ENDROOT
BRANCH   1   5
ATOM      5  C   UNL     1      32.025  15.476  -4.331  1.00  0.00     0.177 C
BRANCH   5   6
ATOM      6  C   UNL     1      30.980  14.441  -4.879  1.00  0.00    -0.009 C
ATOM      7  C   UNL     1      30.140  15.058  -6.017  1.00  0.00     0.013 C
ATOM      8  C   UNL     1      29.996  14.048  -3.752  1.00  0.00     0.013 C
ATOM      9  C   UNL     1      31.648  13.161  -5.411  1.00  0.00     0.013 C
ENDBRANCH   5   6
BRANCH   5  10
ATOM     10  C   UNL     1      32.516  15.137  -2.895  1.00  0.00     0.245 C
ATOM     11  O   UNL     1      32.243  15.891  -1.953  1.00  0.00    -0.272 OA
BRANCH  10  12
ATOM     12  N   UNL     1      33.373  14.095  -2.691  1.00  0.00    -0.338 N
ATOM     13  C   UNL     1      33.172  12.954  -1.816  1.00  0.00     0.143 C
ATOM     14  C   UNL     1      34.687  13.701  -3.140  1.00  0.00     0.143 C
ATOM     15  C   UNL     1      34.480  12.361  -2.387  1.00  0.00     0.092 C
ATOM     16  C   UNL     1      35.472  12.102  -1.360  1.00  0.00     0.073 C
ATOM     17  N   UNL     1      36.276  11.904  -0.545  1.00  0.00    -0.198 NA
BRANCH  15  18
ATOM     18  C   UNL     1      34.220  11.145  -3.296  1.00  0.00     0.026 C
BRANCH  18  19
ATOM     19  C   UNL     1      34.322   9.811  -2.544  1.00  0.00     0.002 C
BRANCH  19  20
ATOM     20  C   UNL     1      32.948   9.210  -2.234  1.00  0.00     0.000 C
ATOM     21  G   UNL     1      31.903   9.578  -3.292  1.00  0.00     0.000 C
ENDBRANCH  19  20
ENDBRANCH  18  19
ENDBRANCH  15  18
ENDBRANCH  10  12
ENDBRANCH   5  10
ENDBRANCH   1   5
BRANCH   2  22
ATOM     22  C   UNL     1      31.627  19.045  -5.413  1.00  0.00     0.085 A
ATOM     23  C   UNL     1      32.144  20.310  -5.146  1.00  0.00     0.100 A
ATOM     24  C   UNL     1      30.304  19.246  -5.897  1.00  0.00     0.120 A
ATOM     25  N   UNL     1      31.174  21.242  -5.423  1.00  0.00    -0.344 N
ATOM     26  N   UNL     1      29.373  18.364  -6.344  1.00  0.00    -0.246 NA
ATOM     27  C   UNL     1      30.055  20.614  -5.884  1.00  0.00     0.156 A
ATOM     28  C   UNL     1      28.201  18.919  -6.745  1.00  0.00     0.066 A
ATOM     29  N   UNL     1      28.917  21.226  -6.259  1.00  0.00    -0.235 NA
ATOM     30  C   UNL     1      28.005  20.309  -6.680  1.00  0.00     0.138 A
ATOM     31  H   UNL     1      31.247  22.244  -5.306  1.00  0.00     0.168 HD
BRANCH  28  32
ATOM     32  C   UNL     1      27.101  18.002  -7.284  1.00  0.00     0.014 C
ATOM     33  C   UNL     1      26.704  18.201  -8.744  1.00  0.00     0.014 C
ATOM     34  C   UNL     1      25.758  18.609  -7.659  1.00  0.00     0.014 C
BRANCH  32  35
ATOM     35  C   UNL     1      27.118  16.575  -6.749  1.00  0.00     0.013 C
BRANCH  35  36
ATOM     36  C   UNL     1      26.720  16.422  -5.277  1.00  0.00     0.001 C
BRANCH  36  37
ATOM     37  C   UNL     1      26.525  14.975  -4.822  1.00  0.00     0.000 C
ATOM     38  G   UNL     1      25.726  14.167  -5.848  1.00  0.00     0.000 C
ENDBRANCH  36  37
ENDBRANCH  35  36
ENDBRANCH  32  35
ENDBRANCH  28  32
ENDBRANCH   2  22
TORSDOF 1
ENDMDL
MODEL 3
REMARK VINA RESULT:      -7.5      2.441      9.632
REMARK SMILES CC(C)(C)[C@H]1NC(=O)c2c[nH]c3ncc(nc23)[C@]2(CCCCCC[C@@]3(C#N)CN(C3)C1=O)CC2
REMARK SMILES IDX 6 1 7 2 8 3 5 5 2 6 1 7 3 8 4 9 31 10 32 11 29 12 28 13
REMARK SMILES IDX 30 14 25 15 26 16 27 17 24 18 23 19 22 20 9 22 10 23 17 24
REMARK SMILES IDX 11 25 16 26 12 27 15 28 13 29 14 30 18 32 34 33 33 34 19 35
REMARK SMILES IDX 20 36 21 37
REMARK H PARENT 6 4 11 31
REMARK Flexibility Score:   84.900
ROOT
ATOM      1  N   UNL     1      30.943  12.565  -3.798  1.00  0.00    -0.340 N
ATOM      2  C   UNL     1      31.725  11.678  -4.509  1.00  0.00     0.255 C
ATOM      3  O   UNL     1      32.389  12.021  -5.479  1.00  0.00    -0.269 OA
ATOM      4  H   UNL     1      30.356  12.212  -3.057  1.00  0.00     0.164 HD
ENDROOT
BRANCH   1   5
ATOM      5  C   UNL     1      31.001  14.001  -4.063  1.00  0.00     0.177 C
BRANCH   5   6
ATOM      6  C   UNL     1      31.827  14.762  -2.966  1.00  0.00    -0.009 C
ATOM      7  C   UNL     1      32.541  15.990  -3.568  1.00  0.00     0.013 C
ATOM      8  C   UNL     1      32.926  13.831  -2.402  1.00  0.00     0.013 C
ATOM      9  C   UNL     1      30.947  15.240  -1.797  1.00  0.00     0.013 C
ENDBRANCH   5   6
BRANCH   5  10
ATOM     10  C   UNL     1      29.617  14.653  -4.339  1.00  0.00     0.245 C
ATOM     11  O   UNL     1      28.578  14.019  -4.117  1.00  0.00    -0.272 OA
BRANCH  10  12
ATOM     12  N   UNL     1      29.541  15.863  -4.965  1.00  0.00    -0.338 N
ATOM     13  C   UNL     1      28.963  17.087  -4.439  1.00  0.00     0.143 C
ATOM     14  C   UNL     1      29.902  16.416  -6.248  1.00  0.00     0.143 C
ATOM     15  C   UNL     1      29.486  17.806  -5.703  1.00  0.00     0.092 C
ATOM     16  C   UNL     1      28.427  18.446  -6.462  1.00  0.00     0.073 C
ATOM     17  N   UNL     1      27.583  18.950  -7.080  1.00  0.00    -0.198 NA
BRANCH  15  18
ATOM     18  C   UNL     1      30.661  18.753  -5.390  1.00  0.00     0.026 C
BRANCH  18  19
ATOM     19  C   UNL     1      30.512  20.125  -6.062  1.00  0.00     0.002 C
BRANCH  19  20
ATOM     20  C   UNL     1      31.443  21.176  -5.451  1.00  0.00     0.000 C
ATOM     21  G   UNL     1      32.903  20.716  -5.432  1.00  0.00     0.000 C
ENDBRANCH  19  20
ENDBRANCH  18  19
ENDBRANCH  15  18
ENDBRANCH  10  12
ENDBRANCH   5  10
ENDBRANCH   1   5
BRANCH   2  22
ATOM     22  C   UNL     1      31.671  10.311  -4.017  1.00  0.00     0.085 A
ATOM     23  C   UNL     1      32.392   9.785  -2.949  1.00  0.00     0.100 A
ATOM     24  C   UNL     1      30.897   9.240  -4.546  1.00  0.00     0.120 A
ATOM     25  N   UNL     1      32.100   8.447  -2.846  1.00  0.00    -0.344 N
ATOM     26  N   UNL     1      29.989   9.208  -5.555  1.00  0.00    -0.246 NA
ATOM     27  C   UNL     1      31.191   8.103  -3.803  1.00  0.00     0.156 A
ATOM     28  C   UNL     1      29.427   7.994  -5.784  1.00  0.00     0.066 A
ATOM     29  N   UNL     1      30.677   6.872  -3.982  1.00  0.00    -0.235 NA
ATOM     30  C   UNL     1      29.790   6.877  -5.013  1.00  0.00     0.138 A
ATOM     31  H   UNL     1      32.488   7.793  -2.180  1.00  0.00     0.168 HD
BRANCH  28  32
ATOM     32  C   UNL     1      28.377   7.869  -6.890  1.00  0.00     0.014 C
ATOM     33  C   UNL     1      28.864   8.089  -8.319  1.00  0.00     0.014 C
ATOM     34  C   UNL     1      27.985   9.113  -7.674  1.00  0.00     0.014 C
BRANCH  32  35
ATOM     35  C   UNL     1      27.315   6.799  -6.667  1.00  0.00     0.013 C
BRANCH  35  36
ATOM     36  C   UNL     1      25.971   7.310  -6.134  1.00  0.00     0.001 C
BRANCH  36  37
ATOM     37  C   UNL     1      25.615   6.808  -4.734  1.00  0.00     0.000 C
ATOM     38  G   UNL     1      26.201   5.419  -4.470  1.00  0.00     0.000 C
ENDBRANCH  36  37
ENDBRANCH  35  36
ENDBRANCH  32  35
ENDBRANCH  28  32
ENDBRANCH   2  22
TORSDOF 1
ENDMDL
MODEL 4
REMARK VINA RESULT:      -7.5      2.335      9.534
REMARK SMILES CC(C)(C)[C@H]1NC(=O)c2c[nH]c3ncc(nc23)[C@]2(CCCCCC[C@@]3(C#N)CN(C3)C1=O)CC2
REMARK SMILES IDX 6 1 7 2 8 3 5 5 2 6 1 7 3 8 4 9 31 10 32 11 29 12 28 13
REMARK SMILES IDX 30 14 25 15 26 16 27 17 24 18 23 19 22 20 9 22 10 23 17 24
REMARK SMILES IDX 11 25 16 26 12 27 15 28 13 29 14 30 18 32 34 33 33 34 19 35
REMARK SMILES IDX 20 36 21 37
REMARK H PARENT 6 4 11 31
REMARK Flexibility Score:   84.900
ROOT
ATOM      1  N   UNL     1      32.357  14.124  -3.913  1.00  0.00    -0.340 N
ATOM      2  C   UNL     1      33.460  14.400  -3.131  1.00  0.00     0.255 C
ATOM      3  O   UNL     1      33.794  15.544  -2.850  1.00  0.00    -0.269 OA
ATOM      4  H   UNL     1      32.174  13.169  -4.179  1.00  0.00     0.164 HD
ENDROOT
BRANCH   1   5
ATOM      5  C   UNL     1      31.427  15.182  -4.305  1.00  0.00     0.177 C
BRANCH   5   6
ATOM      6  C   UNL     1      29.986  14.621  -4.570  1.00  0.00    -0.009 C
ATOM      7  C   UNL     1      29.502  13.764  -3.381  1.00  0.00     0.013 C
ATOM      8  C   UNL     1      30.006  13.699  -5.813  1.00  0.00     0.013 C
ATOM      9  C   UNL     1      28.957  15.739  -4.810  1.00  0.00     0.013 C
ENDBRANCH   5   6
BRANCH   5  10
ATOM     10  C   UNL     1      31.946  16.088  -5.458  1.00  0.00     0.245 C
ATOM     11  O   UNL     1      32.600  15.596  -6.385  1.00  0.00    -0.272 OA
BRANCH  10  12
ATOM     12  N   UNL     1      31.813  17.443  -5.378  1.00  0.00    -0.338 N
ATOM     13  C   UNL     1      31.939  18.402  -6.461  1.00  0.00     0.143 C
ATOM     14  C   UNL     1      31.561  18.424  -4.349  1.00  0.00     0.143 C
ATOM     15  C   UNL     1      31.486  19.495  -5.467  1.00  0.00     0.092 C
ATOM     16  C   UNL     1      32.459  20.564  -5.329  1.00  0.00     0.073 C
ATOM     17  N   UNL     1      33.239  21.415  -5.203  1.00  0.00    -0.198 NA
BRANCH  15  18
ATOM     18  C   UNL     1      30.066  20.009  -5.774  1.00  0.00     0.026 C
BRANCH  18  19
ATOM     19  C   UNL     1      30.049  21.481  -6.208  1.00  0.00     0.002 C
BRANCH  19  20
ATOM     20  C   UNL     1      28.772  21.848  -6.969  1.00  0.00     0.000 C
ATOM     21  G   UNL     1      28.027  20.612  -7.482  1.00  0.00     0.000 C
ENDBRANCH  19  20
ENDBRANCH  18  19
ENDBRANCH  15  18
ENDBRANCH  10  12
ENDBRANCH   5  10
ENDBRANCH   1   5
BRANCH   2  22
ATOM     22  C   UNL     1      34.190  13.221  -2.696  1.00  0.00     0.085 A
ATOM     23  C   UNL     1      35.446  13.198  -2.097  1.00  0.00     0.100 A
ATOM     24  C   UNL     1      33.780  11.864  -2.824  1.00  0.00     0.120 A
ATOM     25  N   UNL     1      35.806  11.888  -1.894  1.00  0.00    -0.344 N
ATOM     26  N   UNL     1      32.629  11.319  -3.295  1.00  0.00    -0.246 NA
ATOM     27  C   UNL     1      34.805  11.068  -2.324  1.00  0.00     0.156 A
ATOM     28  C   UNL     1      32.578   9.963  -3.258  1.00  0.00     0.066 A
ATOM     29  N   UNL     1      34.820   9.723  -2.266  1.00  0.00    -0.235 NA
ATOM     30  C   UNL     1      33.661   9.216  -2.765  1.00  0.00     0.138 A
ATOM     31  H   UNL     1      36.673  11.553  -1.498  1.00  0.00     0.168 HD
BRANCH  28  32
ATOM     32  C   UNL     1      31.309   9.263  -3.750  1.00  0.00     0.014 C
ATOM     33  C   UNL     1      30.703   8.219  -2.818  1.00  0.00     0.014 C
ATOM     34  C   UNL     1      31.372   7.780  -4.082  1.00  0.00     0.014 C
BRANCH  32  35
ATOM     35  C   UNL     1      30.347  10.136  -4.548  1.00  0.00     0.013 C
BRANCH  35  36
ATOM     36  C   UNL     1      29.448   9.386  -5.537  1.00  0.00     0.001 C
BRANCH  36  37
ATOM     37  C   UNL     1      28.038   9.962  -5.672  1.00  0.00     0.000 C
ATOM     38  G   UNL     1      27.388   9.552  -6.996  1.00  0.00     0.000 C
ENDBRANCH  36  37
ENDBRANCH  35  36
ENDBRANCH  32  35
ENDBRANCH  28  32
ENDBRANCH   2  22
TORSDOF 1
ENDMDL
MODEL 5
REMARK VINA RESULT:      -7.5      2.299      4.796
REMARK SMILES CC(C)(C)[C@H]1NC(=O)c2c[nH]c3ncc(nc23)[C@]2(CCCCCC[C@@]3(C#N)CN(C3)C1=O)CC2
REMARK SMILES IDX 6 1 7 2 8 3 5 5 2 6 1 7 3 8 4 9 31 10 32 11 29 12 28 13
REMARK SMILES IDX 30 14 25 15 26 16 27 17 24 18 23 19 22 20 9 22 10 23 17 24
REMARK SMILES IDX 11 25 16 26 12 27 15 28 13 29 14 30 18 32 34 33 33 34 19 35
REMARK SMILES IDX 20 36 21 37
REMARK H PARENT 6 4 11 31
REMARK Flexibility Score:   84.900
ROOT
ATOM      1  N   UNL     1      31.978  17.018  -4.500  1.00  0.00    -0.340 N
ATOM      2  C   UNL     1      32.736  17.762  -5.381  1.00  0.00     0.255 C
ATOM      3  O   UNL     1      33.702  17.295  -5.971  1.00  0.00    -0.269 OA
ATOM      4  H   UNL     1      31.243  17.475  -3.983  1.00  0.00     0.164 HD
ENDROOT
BRANCH   1   5
ATOM      5  C   UNL     1      32.188  15.578  -4.355  1.00  0.00     0.177 C
BRANCH   5   6
ATOM      6  C   UNL     1      30.997  14.754  -4.959  1.00  0.00    -0.009 C
ATOM      7  C   UNL     1      31.493  13.407  -5.528  1.00  0.00     0.013 C
ATOM      8  C   UNL     1      30.365  15.536  -6.134  1.00  0.00     0.013 C
ATOM      9  C   UNL     1      29.899  14.464  -3.920  1.00  0.00     0.013 C
ENDBRANCH   5   6
BRANCH   5  10
ATOM     10  C   UNL     1      32.562  15.133  -2.913  1.00  0.00     0.245 C
ATOM     11  O   UNL     1      32.215  15.818  -1.943  1.00  0.00    -0.272 OA
BRANCH  10  12
ATOM     12  N   UNL     1      33.399  14.074  -2.718  1.00  0.00    -0.338 N
ATOM     13  C   UNL     1      33.174  12.926  -1.858  1.00  0.00     0.143 C
ATOM     14  C   UNL     1      34.709  13.662  -3.165  1.00  0.00     0.143 C
ATOM     15  C   UNL     1      34.475  12.317  -2.430  1.00  0.00     0.092 C
ATOM     16  C   UNL     1      35.457  12.027  -1.401  1.00  0.00     0.073 C
ATOM     17  N   UNL     1      36.252  11.805  -0.584  1.00  0.00    -0.198 NA
BRANCH  15  18
ATOM     18  C   UNL     1      34.198  11.117  -3.356  1.00  0.00     0.026 C
BRANCH  18  19
ATOM     19  C   UNL     1      34.199   9.778  -2.605  1.00  0.00     0.002 C
BRANCH  19  20
ATOM     20  C   UNL     1      32.796   9.174  -2.491  1.00  0.00     0.000 C
ATOM     21  G   UNL     1      31.814   9.799  -3.485  1.00  0.00     0.000 C
ENDBRANCH  19  20
ENDBRANCH  18  19
ENDBRANCH  15  18
ENDBRANCH  10  12
ENDBRANCH   5  10
ENDBRANCH   1   5
BRANCH   2  22
ATOM     22  C   UNL     1      32.297  19.140  -5.526  1.00  0.00     0.085 A
ATOM     23  C   UNL     1      33.047  20.281  -5.255  1.00  0.00     0.100 A
ATOM     24  C   UNL     1      31.013  19.592  -5.941  1.00  0.00     0.120 A
ATOM     25  N   UNL     1      32.252  21.382  -5.464  1.00  0.00    -0.344 N
ATOM     26  N   UNL     1      29.919  18.907  -6.364  1.00  0.00    -0.246 NA
ATOM     27  C   UNL     1      31.018  20.981  -5.885  1.00  0.00     0.156 A
ATOM     28  C   UNL     1      28.852  19.677  -6.695  1.00  0.00     0.066 A
ATOM     29  N   UNL     1      29.995  21.800  -6.191  1.00  0.00    -0.235 NA
ATOM     30  C   UNL     1      28.914  21.076  -6.589  1.00  0.00     0.138 A
ATOM     31  H   UNL     1      32.510  22.349  -5.327  1.00  0.00     0.168 HD
BRANCH  28  32
ATOM     32  C   UNL     1      27.581  18.991  -7.201  1.00  0.00     0.014 C
ATOM     33  C   UNL     1      26.924  19.601  -8.436  1.00  0.00     0.014 C
ATOM     34  C   UNL     1      26.257  19.734  -7.103  1.00  0.00     0.014 C
BRANCH  32  35
ATOM     35  C   UNL     1      27.561  17.472  -7.073  1.00  0.00     0.013 C
BRANCH  35  36
ATOM     36  C   UNL     1      26.805  16.927  -5.857  1.00  0.00     0.001 C
BRANCH  36  37
ATOM     37  C   UNL     1      26.376  15.464  -5.983  1.00  0.00     0.000 C
ATOM     38  G   UNL     1      26.290  14.784  -4.614  1.00  0.00     0.000 C
ENDBRANCH  36  37
ENDBRANCH  35  36
ENDBRANCH  32  35
ENDBRANCH  28  32
ENDBRANCH   2  22
TORSDOF 1
ENDMDL
MODEL 6
REMARK VINA RESULT:      -7.3      0.976      1.373
REMARK SMILES CC(C)(C)[C@H]1NC(=O)c2c[nH]c3ncc(nc23)[C@]2(CCCCCC[C@@]3(C#N)CN(C3)C1=O)CC2
REMARK SMILES IDX 6 1 7 2 8 3 5 5 2 6 1 7 3 8 4 9 31 10 32 11 29 12 28 13
REMARK SMILES IDX 30 14 25 15 26 16 27 17 24 18 23 19 22 20 9 22 10 23 17 24
REMARK SMILES IDX 11 25 16 26 12 27 15 28 13 29 14 30 18 32 34 33 33 34 19 35
REMARK SMILES IDX 20 36 21 37
REMARK H PARENT 6 4 11 31
REMARK Flexibility Score:   84.900
ROOT
ATOM      1  N   UNL     1      29.999  15.017  -4.580  1.00  0.00    -0.340 N
ATOM      2  C   UNL     1      28.633  14.912  -4.738  1.00  0.00     0.255 C
ATOM      3  O   UNL     1      27.998  13.947  -4.333  1.00  0.00    -0.269 OA
ATOM      4  H   UNL     1      30.481  15.796  -5.003  1.00  0.00     0.164 HD
ENDROOT
BRANCH   1   5
ATOM      5  C   UNL     1      30.739  14.056  -3.764  1.00  0.00     0.177 C
BRANCH   5   6
ATOM      6  C   UNL     1      31.784  14.766  -2.833  1.00  0.00    -0.009 C
ATOM      7  C   UNL     1      32.443  15.960  -3.557  1.00  0.00     0.013 C
ATOM      8  C   UNL     1      32.916  13.776  -2.469  1.00  0.00     0.013 C
ATOM      9  C   UNL     1      31.150  15.282  -1.529  1.00  0.00     0.013 C
ENDBRANCH   5   6
BRANCH   5  10
ATOM     10  C   UNL     1      31.352  12.876  -4.571  1.00  0.00     0.245 C
ATOM     11  O   UNL     1      32.252  13.089  -5.392  1.00  0.00    -0.272 OA
BRANCH  10  12
ATOM     12  N   UNL     1      30.801  11.630  -4.491  1.00  0.00    -0.338 N
ATOM     13  C   UNL     1      30.958  10.540  -5.435  1.00  0.00     0.143 C
ATOM     14  C   UNL     1      29.916  10.919  -3.599  1.00  0.00     0.143 C
ATOM     15  C   UNL     1      30.178   9.647  -4.444  1.00  0.00     0.092 C
ATOM     16  C   UNL     1      28.983   9.069  -5.031  1.00  0.00     0.073 C
ATOM     17  N   UNL     1      28.018   8.615  -5.490  1.00  0.00    -0.198 NA
BRANCH  15  18
ATOM     18  C   UNL     1      31.084   8.600  -3.767  1.00  0.00     0.026 C
BRANCH  18  19
ATOM     19  C   UNL     1      31.703   9.109  -2.458  1.00  0.00     0.002 C
BRANCH  19  20
ATOM     20  C   UNL     1      33.227   8.957  -2.437  1.00  0.00     0.000 C
ATOM     21  G   UNL     1      33.945  10.289  -2.670  1.00  0.00     0.000 C
ENDBRANCH  19  20
ENDBRANCH  18  19
ENDBRANCH  15  18
ENDBRANCH  10  12
ENDBRANCH   5  10
ENDBRANCH   1   5
BRANCH   2  22
ATOM     22  C   UNL     1      28.028  16.032  -5.441  1.00  0.00     0.085 A
ATOM     23  C   UNL     1      26.798  16.035  -6.094  1.00  0.00     0.100 A
ATOM     24  C   UNL     1      28.584  17.329  -5.624  1.00  0.00     0.120 A
ATOM     25  N   UNL     1      26.621  17.265  -6.678  1.00  0.00    -0.344 N
ATOM     26  N   UNL     1      29.736  17.881  -5.163  1.00  0.00    -0.246 NA
ATOM     27  C   UNL     1      27.691  18.062  -6.398  1.00  0.00     0.156 A
ATOM     28  C   UNL     1      29.945  19.169  -5.535  1.00  0.00     0.066 A
ATOM     29  N   UNL     1      27.842  19.336  -6.806  1.00  0.00    -0.235 NA
ATOM     30  C   UNL     1      29.014  19.845  -6.342  1.00  0.00     0.138 A
ATOM     31  H   UNL     1      25.834  17.560  -7.239  1.00  0.00     0.168 HD
BRANCH  28  32
ATOM     32  C   UNL     1      31.209  19.878  -5.043  1.00  0.00     0.014 C
ATOM     33  C   UNL     1      31.062  20.744  -3.795  1.00  0.00     0.014 C
ATOM     34  C   UNL     1      31.277  21.396  -5.125  1.00  0.00     0.014 C
BRANCH  32  35
ATOM     35  C   UNL     1      32.505  19.094  -5.206  1.00  0.00     0.013 C
BRANCH  35  36
ATOM     36  C   UNL     1      33.062  19.035  -6.633  1.00  0.00     0.001 C
BRANCH  36  37
ATOM     37  C   UNL     1      34.499  19.540  -6.772  1.00  0.00     0.000 C
ATOM     38  G   UNL     1      34.590  21.048  -6.529  1.00  0.00     0.000 C
ENDBRANCH  36  37
ENDBRANCH  35  36
ENDBRANCH  32  35
ENDBRANCH  28  32
ENDBRANCH   2  22
TORSDOF 1
ENDMDL
MODEL 7
REMARK VINA RESULT:      -7.3      2.167      7.890
REMARK SMILES CC(C)(C)[C@H]1NC(=O)c2c[nH]c3ncc(nc23)[C@]2(CCCCCC[C@@]3(C#N)CN(C3)C1=O)CC2
REMARK SMILES IDX 6 1 7 2 8 3 5 5 2 6 1 7 3 8 4 9 31 10 32 11 29 12 28 13
REMARK SMILES IDX 30 14 25 15 26 16 27 17 24 18 23 19 22 20 9 22 10 23 17 24
REMARK SMILES IDX 11 25 16 26 12 27 15 28 13 29 14 30 18 32 34 33 33 34 19 35
REMARK SMILES IDX 20 36 21 37
REMARK H PARENT 6 4 11 31
REMARK Flexibility Score:   84.900
ROOT
ATOM      1  N   UNL     1      28.493  13.525  -5.964  1.00  0.00    -0.340 N
ATOM      2  C   UNL     1      28.807  12.795  -4.836  1.00  0.00     0.255 C
ATOM      3  O   UNL     1      29.033  13.323  -3.755  1.00  0.00    -0.269 OA
ATOM      4  H   UNL     1      28.395  13.043  -6.845  1.00  0.00     0.164 HD
ENDROOT
BRANCH   1   5
ATOM      5  C   UNL     1      28.244  14.963  -5.886  1.00  0.00     0.177 C
BRANCH   5   6
ATOM      6  C   UNL     1      26.720  15.299  -6.054  1.00  0.00    -0.009 C
ATOM      7  C   UNL     1      25.908  14.791  -4.844  1.00  0.00     0.013 C
ATOM      8  C   UNL     1      26.164  14.581  -7.306  1.00  0.00     0.013 C
ATOM      9  C   UNL     1      26.467  16.810  -6.206  1.00  0.00     0.013 C
ENDBRANCH   5   6
BRANCH   5  10
ATOM     10  C   UNL     1      29.158  15.817  -6.809  1.00  0.00     0.245 C
ATOM     11  O   UNL     1      28.780  16.117  -7.948  1.00  0.00    -0.272 OA
BRANCH  10  12
ATOM     12  N   UNL     1      30.434  16.112  -6.429  1.00  0.00    -0.338 N
ATOM     13  C   UNL     1      30.936  17.389  -5.956  1.00  0.00     0.143 C
ATOM     14  C   UNL     1      31.703  15.426  -6.355  1.00  0.00     0.143 C
ATOM     15  C   UNL     1      32.281  16.687  -5.663  1.00  0.00     0.092 C
ATOM     16  C   UNL     1      33.394  17.292  -6.371  1.00  0.00     0.073 C
ATOM     17  N   UNL     1      34.287  17.763  -6.945  1.00  0.00    -0.198 NA
BRANCH  15  18
ATOM     18  C   UNL     1      32.539  16.531  -4.152  1.00  0.00     0.026 C
BRANCH  18  19
ATOM     19  C   UNL     1      31.323  16.918  -3.300  1.00  0.00     0.002 C
BRANCH  19  20
ATOM     20  C   UNL     1      30.648  15.701  -2.663  1.00  0.00     0.000 C
ATOM     21  G   UNL     1      31.348  15.257  -1.375  1.00  0.00     0.000 C
ENDBRANCH  19  20
ENDBRANCH  18  19
ENDBRANCH  15  18
ENDBRANCH  10  12
ENDBRANCH   5  10
ENDBRANCH   1   5
BRANCH   2  22
ATOM     22  C   UNL     1      28.865  11.359  -5.055  1.00  0.00     0.085 A
ATOM     23  C   UNL     1      27.931  10.586  -5.739  1.00  0.00     0.100 A
ATOM     24  C   UNL     1      29.866  10.461  -4.590  1.00  0.00     0.120 A
ATOM     25  N   UNL     1      28.323   9.271  -5.671  1.00  0.00    -0.344 N
ATOM     26  N   UNL     1      31.021  10.685  -3.910  1.00  0.00    -0.246 NA
ATOM     27  C   UNL     1      29.496   9.180  -4.982  1.00  0.00     0.156 A
ATOM     28  C   UNL     1      31.750   9.574  -3.636  1.00  0.00     0.066 A
ATOM     29  N   UNL     1      30.168   8.040  -4.736  1.00  0.00    -0.235 NA
ATOM     30  C   UNL     1      31.305   8.304  -4.038  1.00  0.00     0.138 A
ATOM     31  H   UNL     1      27.834   8.474  -6.054  1.00  0.00     0.168 HD
BRANCH  28  32
ATOM     32  C   UNL     1      33.078   9.734  -2.891  1.00  0.00     0.014 C
ATOM     33  C   UNL     1      33.769   8.448  -2.448  1.00  0.00     0.014 C
ATOM     34  C   UNL     1      33.146   9.341  -1.422  1.00  0.00     0.014 C
BRANCH  32  35
ATOM     35  C   UNL     1      33.963  10.879  -3.368  1.00  0.00     0.013 C
BRANCH  35  36
ATOM     36  C   UNL     1      33.987  12.113  -2.458  1.00  0.00     0.001 C
BRANCH  36  37
ATOM     37  C   UNL     1      35.388  12.641  -2.148  1.00  0.00     0.000 C
ATOM     38  G   UNL     1      35.929  12.062  -0.838  1.00  0.00     0.000 C
ENDBRANCH  36  37
ENDBRANCH  35  36
ENDBRANCH  32  35
ENDBRANCH  28  32
ENDBRANCH   2  22
TORSDOF 1
ENDMDL
MODEL 8
REMARK VINA RESULT:      -7.2      1.869      8.691
REMARK SMILES CC(C)(C)[C@H]1NC(=O)c2c[nH]c3ncc(nc23)[C@]2(CCCCCC[C@@]3(C#N)CN(C3)C1=O)CC2
REMARK SMILES IDX 6 1 7 2 8 3 5 5 2 6 1 7 3 8 4 9 31 10 32 11 29 12 28 13
REMARK SMILES IDX 30 14 25 15 26 16 27 17 24 18 23 19 22 20 9 22 10 23 17 24
REMARK SMILES IDX 11 25 16 26 12 27 15 28 13 29 14 30 18 32 34 33 33 34 19 35
REMARK SMILES IDX 20 36 21 37
REMARK H PARENT 6 4 11 31
REMARK Flexibility Score:   84.900
ROOT
ATOM      1  N   UNL     1      29.771  14.909  -4.422  1.00  0.00    -0.340 N
ATOM      2  C   UNL     1      30.251  14.524  -3.187  1.00  0.00     0.255 C
ATOM      3  O   UNL     1      29.512  14.169  -2.277  1.00  0.00    -0.269 OA
ATOM      4  H   UNL     1      30.419  15.267  -5.107  1.00  0.00     0.164 HD
ENDROOT
BRANCH   1   5
ATOM      5  C   UNL     1      28.359  14.749  -4.764  1.00  0.00     0.177 C
BRANCH   5   6
ATOM      6  C   UNL     1      28.143  13.610  -5.822  1.00  0.00    -0.009 C
ATOM      7  C   UNL     1      26.781  12.914  -5.610  1.00  0.00     0.013 C
ATOM      8  C   UNL     1      29.235  12.528  -5.652  1.00  0.00     0.013 C
ATOM      9  C   UNL     1      28.197  14.135  -7.268  1.00  0.00     0.013 C
ENDBRANCH   5   6
BRANCH   5  10
ATOM     10  C   UNL     1      27.645  16.076  -5.149  1.00  0.00     0.245 C
ATOM     11  O   UNL     1      26.415  16.102  -5.280  1.00  0.00    -0.272 OA
BRANCH  10  12
ATOM     12  N   UNL     1      28.377  17.175  -5.491  1.00  0.00    -0.338 N
ATOM     13  C   UNL     1      28.741  18.288  -4.632  1.00  0.00     0.143 C
ATOM     14  C   UNL     1      29.010  17.699  -6.678  1.00  0.00     0.143 C
ATOM     15  C   UNL     1      29.605  18.826  -5.795  1.00  0.00     0.092 C
ATOM     16  C   UNL     1      29.221  20.164  -6.205  1.00  0.00     0.073 C
ATOM     17  N   UNL     1      28.910  21.229  -6.547  1.00  0.00    -0.198 NA
BRANCH  15  18
ATOM     18  C   UNL     1      31.113  18.692  -5.509  1.00  0.00     0.026 C
BRANCH  18  19
ATOM     19  C   UNL     1      31.889  19.984  -5.801  1.00  0.00     0.002 C
BRANCH  19  20
ATOM     20  C   UNL     1      33.386  19.841  -5.515  1.00  0.00     0.000 C
ATOM     21  G   UNL     1      34.235  19.981  -6.782  1.00  0.00     0.000 C
ENDBRANCH  19  20
ENDBRANCH  18  19
ENDBRANCH  15  18
ENDBRANCH  10  12
ENDBRANCH   5  10
ENDBRANCH   1   5
BRANCH   2  22
ATOM     22  C   UNL     1      31.697  14.598  -3.062  1.00  0.00     0.085 A
ATOM     23  C   UNL     1      32.476  15.751  -3.107  1.00  0.00     0.100 A
ATOM     24  C   UNL     1      32.600  13.509  -2.900  1.00  0.00     0.120 A
ATOM     25  N   UNL     1      33.796  15.387  -3.009  1.00  0.00    -0.344 N
ATOM     26  N   UNL     1      32.377  12.178  -2.754  1.00  0.00    -0.246 NA
ATOM     27  C   UNL     1      33.888  14.032  -2.878  1.00  0.00     0.156 A
ATOM     28  C   UNL     1      33.494  11.420  -2.611  1.00  0.00     0.066 A
ATOM     29  N   UNL     1      35.034  13.338  -2.748  1.00  0.00    -0.235 NA
ATOM     30  C   UNL     1      34.769  12.009  -2.625  1.00  0.00     0.138 A
ATOM     31  H   UNL     1      34.598  16.003  -3.036  1.00  0.00     0.168 HD
BRANCH  28  32
ATOM     32  C   UNL     1      33.336   9.910  -2.419  1.00  0.00     0.014 C
ATOM     33  C   UNL     1      34.132   9.282  -1.279  1.00  0.00     0.014 C
ATOM     34  C   UNL     1      34.529   9.007  -2.695  1.00  0.00     0.014 C
BRANCH  32  35
ATOM     35  C   UNL     1      31.942   9.357  -2.691  1.00  0.00     0.013 C
BRANCH  35  36
ATOM     36  C   UNL     1      31.655   8.991  -4.152  1.00  0.00     0.001 C
BRANCH  36  37
ATOM     37  C   UNL     1      30.214   9.247  -4.596  1.00  0.00     0.000 C
ATOM     38  G   UNL     1      29.652   8.063  -5.388  1.00  0.00     0.000 C
ENDBRANCH  36  37
ENDBRANCH  35  36
ENDBRANCH  32  35
ENDBRANCH  28  32
ENDBRANCH   2  22
TORSDOF 1
ENDMDL
MODEL 9
REMARK VINA RESULT:      -7.2      2.487      9.411
REMARK SMILES CC(C)(C)[C@H]1NC(=O)c2c[nH]c3ncc(nc23)[C@]2(CCCCCC[C@@]3(C#N)CN(C3)C1=O)CC2
REMARK SMILES IDX 6 1 7 2 8 3 5 5 2 6 1 7 3 8 4 9 31 10 32 11 29 12 28 13
REMARK SMILES IDX 30 14 25 15 26 16 27 17 24 18 23 19 22 20 9 22 10 23 17 24
REMARK SMILES IDX 11 25 16 26 12 27 15 28 13 29 14 30 18 32 34 33 33 34 19 35
REMARK SMILES IDX 20 36 21 37
REMARK H PARENT 6 4 11 31
REMARK Flexibility Score:   84.900
ROOT
ATOM      1  N   UNL     1      31.101  13.087  -4.524  1.00  0.00    -0.340 N
ATOM      2  C   UNL     1      32.096  12.742  -3.633  1.00  0.00     0.255 C
ATOM      3  O   UNL     1      32.802  13.578  -3.083  1.00  0.00    -0.269 OA
ATOM      4  H   UNL     1      30.603  12.354  -5.007  1.00  0.00     0.164 HD
ENDROOT
BRANCH   1   5
ATOM      5  C   UNL     1      30.723  14.484  -4.728  1.00  0.00     0.177 C
BRANCH   5   6
ATOM      6  C   UNL     1      29.210  14.625  -5.121  1.00  0.00    -0.009 C
ATOM      7  C   UNL     1      29.036  14.597  -6.655  1.00  0.00     0.013 C
ATOM      8  C   UNL     1      28.669  15.989  -4.629  1.00  0.00     0.013 C
ATOM      9  C   UNL     1      28.341  13.509  -4.516  1.00  0.00     0.013 C
ENDBRANCH   5   6
BRANCH   5  10
ATOM     10  C   UNL     1      31.671  15.266  -5.680  1.00  0.00     0.245 C
ATOM     11  O   UNL     1      32.494  14.656  -6.373  1.00  0.00    -0.272 OA
BRANCH  10  12
ATOM     12  N   UNL     1      31.706  16.630  -5.645  1.00  0.00    -0.338 N
ATOM     13  C   UNL     1      32.031  17.469  -4.505  1.00  0.00     0.143 C
ATOM     14  C   UNL     1      31.450  17.720  -6.556  1.00  0.00     0.143 C
ATOM     15  C   UNL     1      31.965  18.685  -5.458  1.00  0.00     0.092 C
ATOM     16  C   UNL     1      30.991  19.675  -5.036  1.00  0.00     0.073 C
ATOM     17  N   UNL     1      30.204  20.465  -4.711  1.00  0.00    -0.198 NA
BRANCH  15  18
ATOM     18  C   UNL     1      33.357  19.286  -5.731  1.00  0.00     0.026 C
BRANCH  18  19
ATOM     19  C   UNL     1      33.536  20.675  -5.102  1.00  0.00     0.002 C
BRANCH  19  20
ATOM     20  C   UNL     1      33.790  21.760  -6.152  1.00  0.00     0.000 C
ATOM     21  G   UNL     1      35.283  22.027  -6.361  1.00  0.00     0.000 C
ENDBRANCH  19  20
ENDBRANCH  18  19
ENDBRANCH  15  18
ENDBRANCH  10  12
ENDBRANCH   5  10
ENDBRANCH   1   5
BRANCH   2  22
ATOM     22  C   UNL     1      32.239  11.310  -3.427  1.00  0.00     0.085 A
ATOM     23  C   UNL     1      33.192  10.678  -2.632  1.00  0.00     0.100 A
ATOM     24  C   UNL     1      31.458  10.277  -4.016  1.00  0.00     0.120 A
ATOM     25  N   UNL     1      33.025   9.321  -2.752  1.00  0.00    -0.344 N
ATOM     26  N   UNL     1      30.376  10.332  -4.835  1.00  0.00    -0.246 NA
ATOM     27  C   UNL     1      31.975   9.061  -3.583  1.00  0.00     0.156 A
ATOM     28  C   UNL     1      29.872   9.127  -5.202  1.00  0.00     0.066 A
ATOM     29  N   UNL     1      31.528   7.836  -3.915  1.00  0.00    -0.235 NA
ATOM     30  C   UNL     1      30.459   7.934  -4.750  1.00  0.00     0.138 A
ATOM     31  H   UNL     1      33.582   8.601  -2.312  1.00  0.00     0.168 HD
BRANCH  28  32
ATOM     32  C   UNL     1      28.638   9.093  -6.108  1.00  0.00     0.014 C
ATOM     33  C   UNL     1      27.620  10.214  -5.914  1.00  0.00     0.014 C
ATOM     34  C   UNL     1      27.277   8.823  -5.483  1.00  0.00     0.014 C
BRANCH  32  35
ATOM     35  C   UNL     1      28.883   8.605  -7.530  1.00  0.00     0.013 C
BRANCH  35  36
ATOM     36  C   UNL     1      28.224   7.268  -7.888  1.00  0.00     0.001 C
BRANCH  36  37
ATOM     37  C   UNL     1      29.086   6.040  -7.591  1.00  0.00     0.000 C
ATOM     38  G   UNL     1      28.231   4.844  -7.165  1.00  0.00     0.000 C
ENDBRANCH  36  37
ENDBRANCH  35  36
ENDBRANCH  32  35
ENDBRANCH  28  32
ENDBRANCH   2  22
TORSDOF 1
ENDMDL
