MODEL 1
REMARK VINA RESULT:      -8.5      0.000      0.000
REMARK SMILES CC(C)(C)[C@H]1NC(=O)c2c[nH]c3ncc(nc23)[C@]2(CC2)CSC[C@@]2(C#N)CN(C2)C1=O
REMARK SMILES IDX 9 1 10 2 11 3 12 4 13 5 14 6 15 7 16 8 17 9 7 11 6 12 8 13
REMARK SMILES IDX 5 15 2 16 1 17 3 18 4 19 30 20 31 21 28 22 29 23 27 24 24 25
REMARK SMILES IDX 25 26 26 27 18 29 19 30 20 31 21 32 22 33 23 34
REMARK H PARENT 11 10 6 14
REMARK Flexibility Score:  106.900
ROOT
ATOM      1  C   UNL     1      34.477  12.357  -2.571  1.00  0.00     0.085 A
ATOM      2  C   UNL     1      35.497  12.069  -1.671  1.00  0.00     0.100 A
ATOM      3  N   UNL     1      35.470  10.729  -1.390  1.00  0.00    -0.344 N
ATOM      4  C   UNL     1      34.422  10.150  -2.045  1.00  0.00     0.156 A
ATOM      5  N   UNL     1      34.019   8.877  -1.891  1.00  0.00    -0.235 NA
ATOM      6  C   UNL     1      32.880   8.650  -2.594  1.00  0.00     0.138 A
ATOM      7  C   UNL     1      32.235   9.563  -3.445  1.00  0.00     0.067 A
ATOM      8  N   UNL     1      32.740  10.821  -3.626  1.00  0.00    -0.246 NA
ATOM      9  C   UNL     1      33.823  11.116  -2.846  1.00  0.00     0.120 A
ATOM     10  H   UNL     1      36.065  10.240  -0.736  1.00  0.00     0.168 HD
ENDROOT
BRANCH   1  11
ATOM     11  C   UNL     1      34.129  13.708  -2.994  1.00  0.00     0.255 C
ATOM     12  N   UNL     1      32.934  13.820  -3.654  1.00  0.00    -0.340 N
ATOM     13  O   UNL     1      34.842  14.666  -2.722  1.00  0.00    -0.269 OA
ATOM     14  H   UNL     1      32.430  12.961  -3.847  1.00  0.00     0.164 HD
BRANCH  12  15
ATOM     15  C   UNL     1      32.290  15.096  -4.010  1.00  0.00     0.177 C
BRANCH  15  16
ATOM     16  C   UNL     1      30.927  15.388  -3.290  1.00  0.00    -0.009 C
ATOM     17  C   UNL     1      30.040  14.120  -3.312  1.00  0.00     0.013 C
ATOM     18  C   UNL     1      30.122  16.542  -3.908  1.00  0.00     0.013 C
ATOM     19  C   UNL     1      31.185  15.723  -1.801  1.00  0.00     0.013 C
ENDBRANCH  15  16
BRANCH  15  20
ATOM     20  C   UNL     1      32.386  15.430  -5.545  1.00  0.00     0.245 C
ATOM     21  O   UNL     1      31.899  14.724  -6.428  1.00  0.00    -0.272 OA
BRANCH  20  22
ATOM     22  N   UNL     1      32.865  16.679  -5.854  1.00  0.00    -0.337 N
ATOM     23  C   UNL     1      32.461  17.670  -6.837  1.00  0.00     0.144 C
ATOM     24  C   UNL     1      33.877  17.517  -5.274  1.00  0.00     0.144 C
ATOM     25  C   UNL     1      33.159  18.726  -5.909  1.00  0.00     0.101 C
ATOM     26  C   UNL     1      32.211  19.388  -5.021  1.00  0.00     0.074 C
ATOM     27  N   UNL     1      31.485  19.936  -4.301  1.00  0.00    -0.198 NA
ATOM     28  G   UNL     1      34.083  19.752  -6.567  1.00  0.00     0.000 C
ENDBRANCH  20  22
ENDBRANCH  15  20
ENDBRANCH  12  15
ENDBRANCH   1  11
BRANCH   7  29
ATOM     29  C   UNL     1      30.919   9.191  -4.162  1.00  0.00     0.023 C
ATOM     30  C   UNL     1      30.290  10.152  -5.168  1.00  0.00     0.015 C
ATOM     31  C   UNL     1      29.713  10.056  -3.791  1.00  0.00     0.015 C
BRANCH  29  32
ATOM     32  C   UNL     1      30.614   7.702  -4.323  1.00  0.00     0.083 C
BRANCH  32  33
ATOM     33  S   UNL     1      29.437   7.338  -5.660  1.00  0.00    -0.159 SA
BRANCH  33  34
ATOM     34  C   UNL     1      29.655   5.538  -5.944  1.00  0.00     0.095 C
ATOM     35  G   UNL     1      28.687   4.566  -5.268  1.00  0.00     0.000 C
ENDBRANCH  33  34
ENDBRANCH  32  33
ENDBRANCH  29  32
ENDBRANCH   7  29
TORSDOF 1
ENDMDL
MODEL 2
REMARK VINA RESULT:      -8.3      1.260      1.791
REMARK SMILES CC(C)(C)[C@H]1NC(=O)c2c[nH]c3ncc(nc23)[C@]2(CC2)CSC[C@@]2(C#N)CN(C2)C1=O
REMARK SMILES IDX 9 1 10 2 11 3 12 4 13 5 14 6 15 7 16 8 17 9 7 11 6 12 8 13
REMARK SMILES IDX 5 15 2 16 1 17 3 18 4 19 30 20 31 21 28 22 29 23 27 24 24 25
REMARK SMILES IDX 25 26 26 27 18 29 19 30 20 31 21 32 22 33 23 34
REMARK H PARENT 11 10 6 14
REMARK Flexibility Score:  106.900
ROOT
ATOM      1  C   UNL     1      33.984  13.058  -2.969  1.00  0.00     0.085 A
ATOM      2  C   UNL     1      35.123  12.937  -2.181  1.00  0.00     0.100 A
ATOM      3  N   UNL     1      35.340  11.610  -1.921  1.00  0.00    -0.344 N
ATOM      4  C   UNL     1      34.335  10.871  -2.476  1.00  0.00     0.156 A
ATOM      5  N   UNL     1      34.159   9.550  -2.303  1.00  0.00    -0.235 NA
ATOM      6  C   UNL     1      33.004   9.143  -2.891  1.00  0.00     0.138 A
ATOM      7  C   UNL     1      32.138   9.941  -3.657  1.00  0.00     0.067 A
ATOM      8  N   UNL     1      32.415  11.263  -3.867  1.00  0.00    -0.246 NA
ATOM      9  C   UNL     1      33.511  11.728  -3.196  1.00  0.00     0.120 A
ATOM     10  H   UNL     1      36.069  11.222  -1.338  1.00  0.00     0.168 HD
ENDROOT
BRANCH   1  11
ATOM     11  C   UNL     1      33.384  14.336  -3.331  1.00  0.00     0.255 C
ATOM     12  N   UNL     1      32.294  14.251  -4.158  1.00  0.00    -0.340 N
ATOM     13  O   UNL     1      33.806  15.392  -2.877  1.00  0.00    -0.269 OA
ATOM     14  H   UNL     1      32.039  13.328  -4.494  1.00  0.00     0.164 HD
BRANCH  12  15
ATOM     15  C   UNL     1      31.418  15.383  -4.507  1.00  0.00     0.177 C
BRANCH  15  16
ATOM     16  C   UNL     1      29.904  15.027  -4.706  1.00  0.00    -0.009 C
ATOM     17  C   UNL     1      29.028  16.265  -4.397  1.00  0.00     0.013 C
ATOM     18  C   UNL     1      29.409  13.863  -3.832  1.00  0.00     0.013 C
ATOM     19  C   UNL     1      29.646  14.660  -6.188  1.00  0.00     0.013 C
ENDBRANCH  15  16
BRANCH  15  20
ATOM     20  C   UNL     1      32.073  16.375  -5.538  1.00  0.00     0.245 C
ATOM     21  O   UNL     1      32.712  16.010  -6.525  1.00  0.00    -0.272 OA
BRANCH  20  22
ATOM     22  N   UNL     1      31.714  17.694  -5.405  1.00  0.00    -0.337 N
ATOM     23  C   UNL     1      31.674  18.590  -4.262  1.00  0.00     0.144 C
ATOM     24  C   UNL     1      31.332  18.710  -6.345  1.00  0.00     0.144 C
ATOM     25  C   UNL     1      31.774  19.759  -5.305  1.00  0.00     0.101 C
ATOM     26  C   UNL     1      33.144  20.225  -5.476  1.00  0.00     0.074 C
ATOM     27  N   UNL     1      34.222  20.623  -5.637  1.00  0.00    -0.198 NA
ATOM     28  G   UNL     1      30.822  20.945  -5.138  1.00  0.00     0.000 C
ENDBRANCH  20  22
ENDBRANCH  15  20
ENDBRANCH  12  15
ENDBRANCH   1  11
BRANCH   7  29
ATOM     29  C   UNL     1      30.832   9.363  -4.243  1.00  0.00     0.023 C
ATOM     30  C   UNL     1      30.056  10.135  -5.308  1.00  0.00     0.015 C
ATOM     31  C   UNL     1      29.565  10.146  -3.896  1.00  0.00     0.015 C
BRANCH  29  32
ATOM     32  C   UNL     1      30.673   7.843  -4.217  1.00  0.00     0.083 C
BRANCH  32  33
ATOM     33  S   UNL     1      29.608   7.197  -5.542  1.00  0.00    -0.159 SA
BRANCH  33  34
ATOM     34  C   UNL     1      29.181   5.509  -4.963  1.00  0.00     0.095 C
ATOM     35  G   UNL     1      27.705   5.124  -4.849  1.00  0.00     0.000 C
ENDBRANCH  33  34
ENDBRANCH  32  33
ENDBRANCH  29  32
ENDBRANCH   7  29
TORSDOF 1
ENDMDL
MODEL 3
REMARK VINA RESULT:      -8.1      1.494      1.895
REMARK SMILES CC(C)(C)[C@H]1NC(=O)c2c[nH]c3ncc(nc23)[C@]2(CC2)CSC[C@@]2(C#N)CN(C2)C1=O
REMARK SMILES IDX 9 1 10 2 11 3 12 4 13 5 14 6 15 7 16 8 17 9 7 11 6 12 8 13
REMARK SMILES IDX 5 15 2 16 1 17 3 18 4 19 30 20 31 21 28 22 29 23 27 24 24 25
REMARK SMILES IDX 25 26 26 27 18 29 19 30 20 31 21 32 22 33 23 34
REMARK H PARENT 11 10 6 14
REMARK Flexibility Score:  106.900
ROOT
ATOM      1  C   UNL     1      33.663  13.092  -3.098  1.00  0.00     0.085 A
ATOM      2  C   UNL     1      34.776  12.854  -2.299  1.00  0.00     0.100 A
ATOM      3  N   UNL     1      34.895  11.504  -2.103  1.00  0.00    -0.344 N
ATOM      4  C   UNL     1      33.852  10.865  -2.709  1.00  0.00     0.156 A
ATOM      5  N   UNL     1      33.582   9.552  -2.605  1.00  0.00    -0.235 NA
ATOM      6  C   UNL     1      32.413   9.256  -3.230  1.00  0.00     0.138 A
ATOM      7  C   UNL     1      31.619  10.150  -3.969  1.00  0.00     0.067 A
ATOM      8  N   UNL     1      31.991  11.458  -4.109  1.00  0.00    -0.246 NA
ATOM      9  C   UNL     1      33.104  11.811  -3.398  1.00  0.00     0.120 A
ATOM     10  H   UNL     1      35.584  11.038  -1.528  1.00  0.00     0.168 HD
ENDROOT
BRANCH   1  11
ATOM     11  C   UNL     1      33.160  14.425  -3.406  1.00  0.00     0.255 C
ATOM     12  N   UNL     1      32.101  14.459  -4.276  1.00  0.00    -0.340 N
ATOM     13  O   UNL     1      33.629  15.424  -2.875  1.00  0.00    -0.269 OA
ATOM     14  H   UNL     1      31.803  13.575  -4.675  1.00  0.00     0.164 HD
BRANCH  12  15
ATOM     15  C   UNL     1      31.314  15.663  -4.589  1.00  0.00     0.177 C
BRANCH  15  16
ATOM     16  C   UNL     1      29.784  15.423  -4.840  1.00  0.00    -0.009 C
ATOM     17  C   UNL     1      29.538  15.130  -6.339  1.00  0.00     0.013 C
ATOM     18  C   UNL     1      28.885  16.601  -4.431  1.00  0.00     0.013 C
ATOM     19  C   UNL     1      29.319  14.169  -4.061  1.00  0.00     0.013 C
ENDBRANCH  15  16
BRANCH  15  20
ATOM     20  C   UNL     1      32.061  16.656  -5.556  1.00  0.00     0.245 C
ATOM     21  O   UNL     1      32.758  16.290  -6.502  1.00  0.00    -0.272 OA
BRANCH  20  22
ATOM     22  N   UNL     1      31.723  17.980  -5.425  1.00  0.00    -0.337 N
ATOM     23  C   UNL     1      31.683  18.875  -4.281  1.00  0.00     0.144 C
ATOM     24  C   UNL     1      31.372  19.005  -6.368  1.00  0.00     0.144 C
ATOM     25  C   UNL     1      31.819  20.044  -5.320  1.00  0.00     0.101 C
ATOM     26  C   UNL     1      33.200  20.485  -5.471  1.00  0.00     0.074 C
ATOM     27  N   UNL     1      34.287  20.864  -5.616  1.00  0.00    -0.198 NA
ATOM     28  G   UNL     1      30.887  21.247  -5.164  1.00  0.00     0.000 C
ENDBRANCH  20  22
ENDBRANCH  15  20
ENDBRANCH  12  15
ENDBRANCH   1  11
BRANCH   7  29
ATOM     29  C   UNL     1      30.287   9.694  -4.603  1.00  0.00     0.023 C
ATOM     30  C   UNL     1      29.502  10.637  -5.511  1.00  0.00     0.015 C
ATOM     31  C   UNL     1      29.045  10.432  -4.102  1.00  0.00     0.015 C
BRANCH  29  32
ATOM     32  C   UNL     1      30.097   8.191  -4.814  1.00  0.00     0.083 C
BRANCH  32  33
ATOM     33  S   UNL     1      29.229   7.774  -6.355  1.00  0.00    -0.159 SA
BRANCH  33  34
ATOM     34  C   UNL     1      27.526   7.382  -5.795  1.00  0.00     0.095 C
ATOM     35  G   UNL     1      27.219   5.961  -5.318  1.00  0.00     0.000 C
ENDBRANCH  33  34
ENDBRANCH  32  33
ENDBRANCH  29  32
ENDBRANCH   7  29
TORSDOF 1
ENDMDL
MODEL 4
REMARK VINA RESULT:      -8.1      2.250      3.271
REMARK SMILES CC(C)(C)[C@H]1NC(=O)c2c[nH]c3ncc(nc23)[C@]2(CC2)CSC[C@@]2(C#N)CN(C2)C1=O
REMARK SMILES IDX 9 1 10 2 11 3 12 4 13 5 14 6 15 7 16 8 17 9 7 11 6 12 8 13
REMARK SMILES IDX 5 15 2 16 1 17 3 18 4 19 30 20 31 21 28 22 29 23 27 24 24 25
REMARK SMILES IDX 25 26 26 27 18 29 19 30 20 31 21 32 22 33 23 34
REMARK H PARENT 11 10 6 14
REMARK Flexibility Score:  106.900
ROOT
ATOM      1  C   UNL     1      32.873  14.696  -2.947  1.00  0.00     0.085 A
ATOM      2  C   UNL     1      34.023  15.441  -2.709  1.00  0.00     0.100 A
ATOM      3  N   UNL     1      35.087  14.584  -2.604  1.00  0.00    -0.344 N
ATOM      4  C   UNL     1      34.644  13.298  -2.712  1.00  0.00     0.156 A
ATOM      5  N   UNL     1      35.397  12.201  -2.523  1.00  0.00    -0.235 NA
ATOM      6  C   UNL     1      34.631  11.081  -2.589  1.00  0.00     0.138 A
ATOM      7  C   UNL     1      33.262  11.031  -2.901  1.00  0.00     0.067 A
ATOM      8  N   UNL     1      32.567  12.177  -3.166  1.00  0.00    -0.246 NA
ATOM      9  C   UNL     1      33.284  13.328  -2.998  1.00  0.00     0.120 A
ATOM     10  H   UNL     1      36.042  14.836  -2.389  1.00  0.00     0.168 HD
ENDROOT
BRANCH   1  11
ATOM     11  C   UNL     1      31.533  15.270  -2.988  1.00  0.00     0.255 C
ATOM     12  N   UNL     1      30.986  15.375  -4.240  1.00  0.00    -0.340 N
ATOM     13  O   UNL     1      30.939  15.580  -1.964  1.00  0.00    -0.269 OA
ATOM     14  H   UNL     1      31.572  15.109  -5.025  1.00  0.00     0.164 HD
BRANCH  12  15
ATOM     15  C   UNL     1      29.587  15.747  -4.514  1.00  0.00     0.177 C
BRANCH  15  16
ATOM     16  C   UNL     1      28.807  14.781  -5.472  1.00  0.00    -0.009 C
ATOM     17  C   UNL     1      29.595  13.460  -5.641  1.00  0.00     0.013 C
ATOM     18  C   UNL     1      28.542  15.360  -6.872  1.00  0.00     0.013 C
ATOM     19  C   UNL     1      27.445  14.408  -4.840  1.00  0.00     0.013 C
ENDBRANCH  15  16
BRANCH  15  20
ATOM     20  C   UNL     1      29.390  17.294  -4.725  1.00  0.00     0.245 C
ATOM     21  O   UNL     1      28.362  17.898  -4.419  1.00  0.00    -0.272 OA
BRANCH  20  22
ATOM     22  N   UNL     1      30.517  17.995  -5.077  1.00  0.00    -0.337 N
ATOM     23  C   UNL     1      31.162  18.239  -6.356  1.00  0.00     0.144 C
ATOM     24  C   UNL     1      31.431  18.823  -4.342  1.00  0.00     0.144 C
ATOM     25  C   UNL     1      31.802  19.501  -5.677  1.00  0.00     0.101 C
ATOM     26  C   UNL     1      31.047  20.716  -5.957  1.00  0.00     0.074 C
ATOM     27  N   UNL     1      30.472  21.703  -6.159  1.00  0.00    -0.198 NA
ATOM     28  G   UNL     1      33.298  19.740  -5.887  1.00  0.00     0.000 C
ENDBRANCH  20  22
ENDBRANCH  15  20
ENDBRANCH  12  15
ENDBRANCH   1  11
BRANCH   7  29
ATOM     29  C   UNL     1      32.496   9.690  -2.907  1.00  0.00     0.023 C
ATOM     30  C   UNL     1      32.178   8.977  -1.595  1.00  0.00     0.015 C
ATOM     31  C   UNL     1      33.305   8.479  -2.442  1.00  0.00     0.015 C
BRANCH  29  32
ATOM     32  C   UNL     1      31.572   9.425  -4.097  1.00  0.00     0.083 C
BRANCH  32  33
ATOM     33  S   UNL     1      29.934  10.196  -3.935  1.00  0.00    -0.159 SA
BRANCH  33  34
ATOM     34  C   UNL     1      28.960   9.418  -5.282  1.00  0.00     0.095 C
ATOM     35  G   UNL     1      27.749  10.167  -5.840  1.00  0.00     0.000 C
ENDBRANCH  33  34
ENDBRANCH  32  33
ENDBRANCH  29  32
ENDBRANCH   7  29
TORSDOF 1
ENDMDL
MODEL 5
REMARK VINA RESULT:      -8.0      1.991      2.893
REMARK SMILES CC(C)(C)[C@H]1NC(=O)c2c[nH]c3ncc(nc23)[C@]2(CC2)CSC[C@@]2(C#N)CN(C2)C1=O
REMARK SMILES IDX 9 1 10 2 11 3 12 4 13 5 14 6 15 7 16 8 17 9 7 11 6 12 8 13
REMARK SMILES IDX 5 15 2 16 1 17 3 18 4 19 30 20 31 21 28 22 29 23 27 24 24 25
REMARK SMILES IDX 25 26 26 27 18 29 19 30 20 31 21 32 22 33 23 34
REMARK H PARENT 11 10 6 14
REMARK Flexibility Score:  106.900
ROOT
ATOM      1  C   UNL     1      33.317  14.587  -3.048  1.00  0.00     0.085 A
ATOM      2  C   UNL     1      34.535  15.096  -2.610  1.00  0.00     0.100 A
ATOM      3  N   UNL     1      35.393  14.052  -2.388  1.00  0.00    -0.344 N
ATOM      4  C   UNL     1      34.742  12.875  -2.619  1.00  0.00     0.156 A
ATOM      5  N   UNL     1      35.242  11.652  -2.370  1.00  0.00    -0.235 NA
ATOM      6  C   UNL     1      34.302  10.699  -2.599  1.00  0.00     0.138 A
ATOM      7  C   UNL     1      33.011  10.914  -3.111  1.00  0.00     0.067 A
ATOM      8  N   UNL     1      32.589  12.176  -3.424  1.00  0.00    -0.246 NA
ATOM      9  C   UNL     1      33.472  13.168  -3.100  1.00  0.00     0.120 A
ATOM     10  H   UNL     1      36.334  14.115  -2.024  1.00  0.00     0.168 HD
ENDROOT
BRANCH   1  11
ATOM     11  C   UNL     1      32.129  15.406  -3.261  1.00  0.00     0.255 C
ATOM     12  N   UNL     1      31.540  15.264  -4.490  1.00  0.00    -0.340 N
ATOM     13  O   UNL     1      31.678  16.119  -2.374  1.00  0.00    -0.269 OA
ATOM     14  H   UNL     1      32.008  14.663  -5.160  1.00  0.00     0.164 HD
BRANCH  12  15
ATOM     15  C   UNL     1      30.238  15.840  -4.865  1.00  0.00     0.177 C
BRANCH  15  16
ATOM     16  C   UNL     1      29.035  14.834  -4.881  1.00  0.00    -0.009 C
ATOM     17  C   UNL     1      29.178  13.864  -6.078  1.00  0.00     0.013 C
ATOM     18  C   UNL     1      27.654  15.504  -4.974  1.00  0.00     0.013 C
ATOM     19  C   UNL     1      29.064  13.967  -3.600  1.00  0.00     0.013 C
ENDBRANCH  15  16
BRANCH  15  20
ATOM     20  C   UNL     1      30.337  16.872  -6.050  1.00  0.00     0.245 C
ATOM     21  O   UNL     1      29.975  16.627  -7.200  1.00  0.00    -0.272 OA
BRANCH  20  22
ATOM     22  N   UNL     1      30.657  18.159  -5.693  1.00  0.00    -0.337 N
ATOM     23  C   UNL     1      31.476  18.707  -4.625  1.00  0.00     0.144 C
ATOM     24  C   UNL     1      30.384  19.440  -6.280  1.00  0.00     0.144 C
ATOM     25  C   UNL     1      31.614  19.985  -5.526  1.00  0.00     0.101 C
ATOM     26  C   UNL     1      32.844  19.974  -6.307  1.00  0.00     0.074 C
ATOM     27  N   UNL     1      33.814  20.000  -6.944  1.00  0.00    -0.198 NA
ATOM     28  G   UNL     1      31.414  21.349  -4.862  1.00  0.00     0.000 C
ENDBRANCH  20  22
ENDBRANCH  15  20
ENDBRANCH  12  15
ENDBRANCH   1  11
BRANCH   7  29
ATOM     29  C   UNL     1      32.020   9.744  -3.291  1.00  0.00     0.023 C
ATOM     30  C   UNL     1      31.430   9.038  -2.073  1.00  0.00     0.015 C
ATOM     31  C   UNL     1      32.538   8.381  -2.830  1.00  0.00     0.015 C
BRANCH  29  32
ATOM     32  C   UNL     1      31.207   9.716  -4.586  1.00  0.00     0.083 C
BRANCH  32  33
ATOM     33  S   UNL     1      29.505  10.326  -4.392  1.00  0.00    -0.159 SA
BRANCH  33  34
ATOM     34  C   UNL     1      28.515   9.164  -5.410  1.00  0.00     0.095 C
ATOM     35  G   UNL     1      29.154   8.555  -6.660  1.00  0.00     0.000 C
ENDBRANCH  33  34
ENDBRANCH  32  33
ENDBRANCH  29  32
ENDBRANCH   7  29
TORSDOF 1
ENDMDL
MODEL 6
REMARK VINA RESULT:      -8.0      0.870      1.210
REMARK SMILES CC(C)(C)[C@H]1NC(=O)c2c[nH]c3ncc(nc23)[C@]2(CC2)CSC[C@@]2(C#N)CN(C2)C1=O
REMARK SMILES IDX 9 1 10 2 11 3 12 4 13 5 14 6 15 7 16 8 17 9 7 11 6 12 8 13
REMARK SMILES IDX 5 15 2 16 1 17 3 18 4 19 30 20 31 21 28 22 29 23 27 24 24 25
REMARK SMILES IDX 25 26 26 27 18 29 19 30 20 31 21 32 22 33 23 34
REMARK H PARENT 11 10 6 14
REMARK Flexibility Score:  106.900
ROOT
ATOM      1  C   UNL     1      34.470  12.568  -2.554  1.00  0.00     0.085 A
ATOM      2  C   UNL     1      35.547  12.348  -1.702  1.00  0.00     0.100 A
ATOM      3  N   UNL     1      35.642  11.004  -1.452  1.00  0.00    -0.344 N
ATOM      4  C   UNL     1      34.617  10.355  -2.077  1.00  0.00     0.156 A
ATOM      5  N   UNL     1      34.327   9.050  -1.937  1.00  0.00    -0.235 NA
ATOM      6  C   UNL     1      33.181   8.744  -2.599  1.00  0.00     0.138 A
ATOM      7  C   UNL     1      32.429   9.618  -3.402  1.00  0.00     0.067 A
ATOM      8  N   UNL     1      32.822  10.916  -3.573  1.00  0.00    -0.246 NA
ATOM      9  C   UNL     1      33.909  11.283  -2.831  1.00  0.00     0.120 A
ATOM     10  H   UNL     1      36.302  10.553  -0.834  1.00  0.00     0.168 HD
ENDROOT
BRANCH   1  11
ATOM     11  C   UNL     1      33.997  13.895  -2.930  1.00  0.00     0.255 C
ATOM     12  N   UNL     1      32.757  13.924  -3.514  1.00  0.00    -0.340 N
ATOM     13  O   UNL     1      34.651  14.900  -2.684  1.00  0.00    -0.269 OA
ATOM     14  H   UNL     1      32.309  13.031  -3.692  1.00  0.00     0.164 HD
BRANCH  12  15
ATOM     15  C   UNL     1      31.999  15.151  -3.807  1.00  0.00     0.177 C
BRANCH  15  16
ATOM     16  C   UNL     1      30.537  15.193  -3.240  1.00  0.00    -0.009 C
ATOM     17  C   UNL     1      29.862  13.813  -3.428  1.00  0.00     0.013 C
ATOM     18  C   UNL     1      29.638  16.256  -3.891  1.00  0.00     0.013 C
ATOM     19  C   UNL     1      30.577  15.463  -1.716  1.00  0.00     0.013 C
ENDBRANCH  15  16
BRANCH  15  20
ATOM     20  C   UNL     1      32.224  15.682  -5.272  1.00  0.00     0.245 C
ATOM     21  O   UNL     1      32.457  14.950  -6.234  1.00  0.00    -0.272 OA
BRANCH  20  22
ATOM     22  N   UNL     1      31.934  17.009  -5.475  1.00  0.00    -0.337 N
ATOM     23  C   UNL     1      32.095  18.188  -4.642  1.00  0.00     0.144 C
ATOM     24  C   UNL     1      31.449  17.748  -6.607  1.00  0.00     0.144 C
ATOM     25  C   UNL     1      32.078  19.010  -5.979  1.00  0.00     0.101 C
ATOM     26  C   UNL     1      33.422  19.305  -6.459  1.00  0.00     0.074 C
ATOM     27  N   UNL     1      34.477  19.560  -6.870  1.00  0.00    -0.198 NA
ATOM     28  G   UNL     1      31.202  20.263  -6.034  1.00  0.00     0.000 C
ENDBRANCH  20  22
ENDBRANCH  15  20
ENDBRANCH  12  15
ENDBRANCH   1  11
BRANCH   7  29
ATOM     29  C   UNL     1      31.118   9.153  -4.073  1.00  0.00     0.023 C
ATOM     30  C   UNL     1      30.450  10.017  -5.140  1.00  0.00     0.015 C
ATOM     31  C   UNL     1      29.890  10.006  -3.754  1.00  0.00     0.015 C
BRANCH  29  32
ATOM     32  C   UNL     1      30.859   7.647  -4.119  1.00  0.00     0.083 C
BRANCH  32  33
ATOM     33  S   UNL     1      29.708   7.145  -5.434  1.00  0.00    -0.159 SA
BRANCH  33  34
ATOM     34  C   UNL     1      29.106   5.504  -4.873  1.00  0.00     0.095 C
ATOM     35  G   UNL     1      28.846   4.420  -5.920  1.00  0.00     0.000 C
ENDBRANCH  33  34
ENDBRANCH  32  33
ENDBRANCH  29  32
ENDBRANCH   7  29
TORSDOF 1
ENDMDL
MODEL 7
REMARK VINA RESULT:      -7.9      1.681      2.331
REMARK SMILES CC(C)(C)[C@H]1NC(=O)c2c[nH]c3ncc(nc23)[C@]2(CC2)CSC[C@@]2(C#N)CN(C2)C1=O
REMARK SMILES IDX 9 1 10 2 11 3 12 4 13 5 14 6 15 7 16 8 17 9 7 11 6 12 8 13
REMARK SMILES IDX 5 15 2 16 1 17 3 18 4 19 30 20 31 21 28 22 29 23 27 24 24 25
REMARK SMILES IDX 25 26 26 27 18 29 19 30 20 31 21 32 22 33 23 34
REMARK H PARENT 11 10 6 14
REMARK Flexibility Score:  106.900
ROOT
ATOM      1  C   UNL     1      33.155  13.260  -3.350  1.00  0.00     0.085 A
ATOM      2  C   UNL     1      34.258  12.992  -2.548  1.00  0.00     0.100 A
ATOM      3  N   UNL     1      34.369  11.636  -2.391  1.00  0.00    -0.344 N
ATOM      4  C   UNL     1      33.330  11.021  -3.027  1.00  0.00     0.156 A
ATOM      5  N   UNL     1      33.052   9.707  -2.966  1.00  0.00    -0.235 NA
ATOM      6  C   UNL     1      31.889   9.436  -3.613  1.00  0.00     0.138 A
ATOM      7  C   UNL     1      31.107  10.356  -4.333  1.00  0.00     0.067 A
ATOM      8  N   UNL     1      31.487  11.665  -4.428  1.00  0.00    -0.246 NA
ATOM      9  C   UNL     1      32.593  11.992  -3.696  1.00  0.00     0.120 A
ATOM     10  H   UNL     1      35.050  11.150  -1.824  1.00  0.00     0.168 HD
ENDROOT
BRANCH   1  11
ATOM     11  C   UNL     1      32.662  14.605  -3.623  1.00  0.00     0.255 C
ATOM     12  N   UNL     1      31.650  14.675  -4.546  1.00  0.00    -0.340 N
ATOM     13  O   UNL     1      33.096  15.579  -3.022  1.00  0.00    -0.269 OA
ATOM     14  H   UNL     1      31.379  13.810  -5.001  1.00  0.00     0.164 HD
BRANCH  12  15
ATOM     15  C   UNL     1      30.874  15.890  -4.844  1.00  0.00     0.177 C
BRANCH  15  16
ATOM     16  C   UNL     1      29.343  15.665  -5.104  1.00  0.00    -0.009 C
ATOM     17  C   UNL     1      28.535  16.861  -4.546  1.00  0.00     0.013 C
ATOM     18  C   UNL     1      28.780  14.378  -4.481  1.00  0.00     0.013 C
ATOM     19  C   UNL     1      29.074  15.620  -6.628  1.00  0.00     0.013 C
ENDBRANCH  15  16
BRANCH  15  20
ATOM     20  C   UNL     1      31.632  16.890  -5.795  1.00  0.00     0.245 C
ATOM     21  O   UNL     1      32.189  16.549  -6.838  1.00  0.00    -0.272 OA
BRANCH  20  22
ATOM     22  N   UNL     1      31.462  18.223  -5.514  1.00  0.00    -0.337 N
ATOM     23  C   UNL     1      31.599  18.994  -4.290  1.00  0.00     0.144 C
ATOM     24  C   UNL     1      31.174  19.371  -6.326  1.00  0.00     0.144 C
ATOM     25  C   UNL     1      31.805  20.242  -5.219  1.00  0.00     0.101 C
ATOM     26  C   UNL     1      33.215  20.541  -5.430  1.00  0.00     0.074 C
ATOM     27  N   UNL     1      34.328  20.810  -5.619  1.00  0.00    -0.198 NA
ATOM     28  G   UNL     1      31.031  21.517  -4.881  1.00  0.00     0.000 C
ENDBRANCH  20  22
ENDBRANCH  15  20
ENDBRANCH  12  15
ENDBRANCH   1  11
BRANCH   7  29
ATOM     29  C   UNL     1      29.780   9.926  -4.995  1.00  0.00     0.023 C
ATOM     30  C   UNL     1      28.916  10.950  -5.726  1.00  0.00     0.015 C
ATOM     31  C   UNL     1      28.519  10.508  -4.354  1.00  0.00     0.015 C
BRANCH  29  32
ATOM     32  C   UNL     1      29.663   8.465  -5.429  1.00  0.00     0.083 C
BRANCH  32  33
ATOM     33  S   UNL     1      29.027   8.253  -7.119  1.00  0.00    -0.159 SA
BRANCH  33  34
ATOM     34  C   UNL     1      28.433   6.517  -7.139  1.00  0.00     0.095 C
ATOM     35  G   UNL     1      29.445   5.398  -7.391  1.00  0.00     0.000 C
ENDBRANCH  33  34
ENDBRANCH  32  33
ENDBRANCH  29  32
ENDBRANCH   7  29
TORSDOF 1
ENDMDL
MODEL 8
REMARK VINA RESULT:      -7.9      2.203      3.429
REMARK SMILES CC(C)(C)[C@H]1NC(=O)c2c[nH]c3ncc(nc23)[C@]2(CC2)CSC[C@@]2(C#N)CN(C2)C1=O
REMARK SMILES IDX 9 1 10 2 11 3 12 4 13 5 14 6 15 7 16 8 17 9 7 11 6 12 8 13
REMARK SMILES IDX 5 15 2 16 1 17 3 18 4 19 30 20 31 21 28 22 29 23 27 24 24 25
REMARK SMILES IDX 25 26 26 27 18 29 19 30 20 31 21 32 22 33 23 34
REMARK H PARENT 11 10 6 14
REMARK Flexibility Score:  106.900
ROOT
ATOM      1  C   UNL     1      32.516  14.742  -3.084  1.00  0.00     0.085 A
ATOM      2  C   UNL     1      33.671  15.469  -2.818  1.00  0.00     0.100 A
ATOM      3  N   UNL     1      34.725  14.601  -2.723  1.00  0.00    -0.344 N
ATOM      4  C   UNL     1      34.272  13.321  -2.867  1.00  0.00     0.156 A
ATOM      5  N   UNL     1      35.013  12.213  -2.696  1.00  0.00    -0.235 NA
ATOM      6  C   UNL     1      34.238  11.103  -2.796  1.00  0.00     0.138 A
ATOM      7  C   UNL     1      32.871  11.073  -3.122  1.00  0.00     0.067 A
ATOM      8  N   UNL     1      32.190  12.232  -3.366  1.00  0.00    -0.246 NA
ATOM      9  C   UNL     1      32.916  13.372  -3.164  1.00  0.00     0.120 A
ATOM     10  H   UNL     1      35.681  14.838  -2.494  1.00  0.00     0.168 HD
ENDROOT
BRANCH   1  11
ATOM     11  C   UNL     1      31.182  15.329  -3.124  1.00  0.00     0.255 C
ATOM     12  N   UNL     1      30.722  15.637  -4.378  1.00  0.00    -0.340 N
ATOM     13  O   UNL     1      30.519  15.478  -2.106  1.00  0.00    -0.269 OA
ATOM     14  H   UNL     1      31.360  15.494  -5.153  1.00  0.00     0.164 HD
BRANCH  12  15
ATOM     15  C   UNL     1      29.345  16.063  -4.682  1.00  0.00     0.177 C
BRANCH  15  16
ATOM     16  C   UNL     1      28.617  15.240  -5.801  1.00  0.00    -0.009 C
ATOM     17  C   UNL     1      28.829  15.919  -7.175  1.00  0.00     0.013 C
ATOM     18  C   UNL     1      27.104  15.075  -5.580  1.00  0.00     0.013 C
ATOM     19  C   UNL     1      29.245  13.828  -5.903  1.00  0.00     0.013 C
ENDBRANCH  15  16
BRANCH  15  20
ATOM     20  C   UNL     1      29.173  17.627  -4.703  1.00  0.00     0.245 C
ATOM     21  O   UNL     1      28.204  18.213  -4.221  1.00  0.00    -0.272 OA
BRANCH  20  22
ATOM     22  N   UNL     1      30.275  18.342  -5.104  1.00  0.00    -0.337 N
ATOM     23  C   UNL     1      31.542  18.637  -4.457  1.00  0.00     0.144 C
ATOM     24  C   UNL     1      30.635  18.989  -6.334  1.00  0.00     0.144 C
ATOM     25  C   UNL     1      32.111  18.863  -5.902  1.00  0.00     0.101 C
ATOM     26  C   UNL     1      32.782  17.678  -6.418  1.00  0.00     0.074 C
ATOM     27  N   UNL     1      33.326  16.753  -6.862  1.00  0.00    -0.198 NA
ATOM     28  G   UNL     1      32.963  20.110  -6.145  1.00  0.00     0.000 C
ENDBRANCH  20  22
ENDBRANCH  15  20
ENDBRANCH  12  15
ENDBRANCH   1  11
BRANCH   7  29
ATOM     29  C   UNL     1      32.093   9.740  -3.167  1.00  0.00     0.023 C
ATOM     30  C   UNL     1      31.675   9.046  -1.873  1.00  0.00     0.015 C
ATOM     31  C   UNL     1      32.854   8.527  -2.632  1.00  0.00     0.015 C
BRANCH  29  32
ATOM     32  C   UNL     1      31.253   9.469  -4.416  1.00  0.00     0.083 C
BRANCH  32  33
ATOM     33  S   UNL     1      29.623  10.273  -4.388  1.00  0.00    -0.159 SA
BRANCH  33  34
ATOM     34  C   UNL     1      28.577   9.154  -5.400  1.00  0.00     0.095 C
ATOM     35  G   UNL     1      29.151   8.587  -6.699  1.00  0.00     0.000 C
ENDBRANCH  33  34
ENDBRANCH  32  33
ENDBRANCH  29  32
ENDBRANCH   7  29
TORSDOF 1
ENDMDL
MODEL 9
REMARK VINA RESULT:      -7.8      1.473      1.949
REMARK SMILES CC(C)(C)[C@H]1NC(=O)c2c[nH]c3ncc(nc23)[C@]2(CC2)CSC[C@@]2(C#N)CN(C2)C1=O
REMARK SMILES IDX 9 1 10 2 11 3 12 4 13 5 14 6 15 7 16 8 17 9 7 11 6 12 8 13
REMARK SMILES IDX 5 15 2 16 1 17 3 18 4 19 30 20 31 21 28 22 29 23 27 24 24 25
REMARK SMILES IDX 25 26 26 27 18 29 19 30 20 31 21 32 22 33 23 34
REMARK H PARENT 11 10 6 14
REMARK Flexibility Score:  106.900
ROOT
ATOM      1  C   UNL     1      33.823  13.243  -3.119  1.00  0.00     0.085 A
ATOM      2  C   UNL     1      34.961  13.034  -2.347  1.00  0.00     0.100 A
ATOM      3  N   UNL     1      35.102  11.689  -2.128  1.00  0.00    -0.344 N
ATOM      4  C   UNL     1      34.051  11.026  -2.693  1.00  0.00     0.156 A
ATOM      5  N   UNL     1      33.799   9.713  -2.556  1.00  0.00    -0.235 NA
ATOM      6  C   UNL     1      32.618   9.391  -3.143  1.00  0.00     0.138 A
ATOM      7  C   UNL     1      31.794  10.261  -3.877  1.00  0.00     0.067 A
ATOM      8  N   UNL     1      32.145  11.570  -4.052  1.00  0.00    -0.246 NA
ATOM      9  C   UNL     1      33.273  11.950  -3.380  1.00  0.00     0.120 A
ATOM     10  H   UNL     1      35.812  11.244  -1.564  1.00  0.00     0.168 HD
ENDROOT
BRANCH   1  11
ATOM     11  C   UNL     1      33.297  14.564  -3.440  1.00  0.00     0.255 C
ATOM     12  N   UNL     1      32.490  14.614  -4.546  1.00  0.00    -0.340 N
ATOM     13  O   UNL     1      33.527  15.534  -2.728  1.00  0.00    -0.269 OA
ATOM     14  H   UNL     1      32.381  13.757  -5.078  1.00  0.00     0.164 HD
BRANCH  12  15
ATOM     15  C   UNL     1      31.700  15.788  -4.954  1.00  0.00     0.177 C
BRANCH  15  16
ATOM     16  C   UNL     1      30.234  15.486  -5.422  1.00  0.00    -0.009 C
ATOM     17  C   UNL     1      29.233  15.926  -4.327  1.00  0.00     0.013 C
ATOM     18  C   UNL     1      29.967  14.007  -5.744  1.00  0.00     0.013 C
ATOM     19  C   UNL     1      29.907  16.321  -6.683  1.00  0.00     0.013 C
ENDBRANCH  15  16
BRANCH  15  20
ATOM     20  C   UNL     1      32.530  16.829  -5.795  1.00  0.00     0.245 C
ATOM     21  O   UNL     1      33.197  16.528  -6.785  1.00  0.00    -0.272 OA
BRANCH  20  22
ATOM     22  N   UNL     1      32.305  18.150  -5.498  1.00  0.00    -0.337 N
ATOM     23  C   UNL     1      32.610  19.382  -6.205  1.00  0.00     0.144 C
ATOM     24  C   UNL     1      31.610  18.814  -4.431  1.00  0.00     0.144 C
ATOM     25  C   UNL     1      31.452  20.030  -5.367  1.00  0.00     0.101 C
ATOM     26  C   UNL     1      30.192  20.055  -6.100  1.00  0.00     0.074 C
ATOM     27  N   UNL     1      29.174  20.094  -6.654  1.00  0.00    -0.198 NA
ATOM     28  G   UNL     1      31.719  21.387  -4.714  1.00  0.00     0.000 C
ENDBRANCH  20  22
ENDBRANCH  15  20
ENDBRANCH  12  15
ENDBRANCH   1  11
BRANCH   7  29
ATOM     29  C   UNL     1      30.450   9.777  -4.466  1.00  0.00     0.023 C
ATOM     30  C   UNL     1      29.652  10.676  -5.407  1.00  0.00     0.015 C
ATOM     31  C   UNL     1      29.218  10.543  -3.982  1.00  0.00     0.015 C
BRANCH  29  32
ATOM     32  C   UNL     1      30.255   8.266  -4.598  1.00  0.00     0.083 C
BRANCH  32  33
ATOM     33  S   UNL     1      29.361   7.774  -6.103  1.00  0.00    -0.159 SA
BRANCH  33  34
ATOM     34  C   UNL     1      29.451   5.942  -6.075  1.00  0.00     0.095 C
ATOM     35  G   UNL     1      28.730   5.155  -7.171  1.00  0.00     0.000 C
ENDBRANCH  33  34
ENDBRANCH  32  33
ENDBRANCH  29  32
ENDBRANCH   7  29
TORSDOF 1
ENDMDL
