MODEL 1
REMARK VINA RESULT:      -8.0      0.000      0.000
REMARK SMILES Cc1cnc2nc1-c1cccc(c1)COCC=C1COCc3cc(ccc3OCCN3CCC[C@H]3CSC1)N2
REMARK SMILES IDX 22 1 23 2 24 3 25 4 26 5 27 6 39 7 5 9 2 10 3 11 7 12 4 13
REMARK SMILES IDX 6 14 1 15 8 16 9 17 13 18 10 19 12 20 11 21 14 22 15 23
REMARK SMILES IDX 16 24 21 26 20 27 19 28 18 29 17 30 38 32 37 33 36 34 28 36
REMARK SMILES IDX 29 37 30 38 31 39 32 40 35 41 33 42 34 43
REMARK H PARENT 39 8
REMARK Flexibility Score:  100.800
ROOT
ATOM      1  C   UNL     1      28.815  15.170  -5.565  1.00  0.00     0.022 A
ATOM      2  C   UNL     1      28.638  13.770  -5.620  1.00  0.00     0.036 A
ATOM      3  C   UNL     1      27.372  13.183  -5.516  1.00  0.00     0.042 A
ATOM      4  C   UNL     1      26.276  14.024  -5.265  1.00  0.00     0.030 A
ATOM      5  C   UNL     1      26.420  15.409  -5.219  1.00  0.00     0.049 A
ATOM      6  C   UNL     1      27.675  15.977  -5.428  1.00  0.00     0.125 A
ENDROOT
BRANCH   3   7
ATOM      7  N   UNL     1      27.117  11.820  -5.701  1.00  0.00    -0.324 N
ATOM      8  H   UNL     1      26.313  11.584  -6.265  1.00  0.00     0.170 HD
BRANCH   7   9
ATOM      9  C   UNL     1      27.850  10.654  -5.498  1.00  0.00     0.227 A
ATOM     10  C   UNL     1      29.247   8.310  -5.436  1.00  0.00    -0.006 A
ATOM     11  C   UNL     1      27.976   8.419  -5.960  1.00  0.00     0.120 A
ATOM     12  C   UNL     1      29.735   9.467  -4.840  1.00  0.00     0.079 A
ATOM     13  N   UNL     1      27.261   9.555  -5.983  1.00  0.00    -0.221 NA
ATOM     14  N   UNL     1      29.055  10.642  -4.914  1.00  0.00    -0.212 NA
ATOM     15  C   UNL     1      29.964   7.003  -5.534  1.00  0.00     0.048 C
BRANCH  12  16
ATOM     16  C   UNL     1      31.006   9.558  -4.075  1.00  0.00     0.001 A
ATOM     17  C   UNL     1      31.516   8.484  -3.324  1.00  0.00     0.010 A
ATOM     18  C   UNL     1      31.722  10.769  -4.020  1.00  0.00     0.016 A
ATOM     19  C   UNL     1      32.716   8.588  -2.613  1.00  0.00     0.001 A
ATOM     20  C   UNL     1      32.901  10.905  -3.265  1.00  0.00    -0.022 A
ATOM     21  C   UNL     1      33.411   9.791  -2.593  1.00  0.00     0.006 A
BRANCH  20  22
ATOM     22  C   UNL     1      33.569  12.246  -3.124  1.00  0.00     0.196 C
BRANCH  22  23
ATOM     23  O   UNL     1      34.976  12.156  -2.912  1.00  0.00    -0.373 OA
BRANCH  23  24
ATOM     24  C   UNL     1      35.442  12.696  -1.672  1.00  0.00     0.188 C
ATOM     25  G   UNL     1      36.017  11.607  -0.816  1.00  0.00     0.000 C
ENDBRANCH  23  24
ENDBRANCH  22  23
ENDBRANCH  20  22
ENDBRANCH  12  16
ENDBRANCH   7   9
ENDBRANCH   3   7
BRANCH   1  26
ATOM     26  C   UNL     1      30.203  15.760  -5.700  1.00  0.00     0.200 C
BRANCH  26  27
ATOM     27  O   UNL     1      30.681  16.162  -4.420  1.00  0.00    -0.372 OA
BRANCH  27  28
ATOM     28  C   UNL     1      32.092  16.292  -4.316  1.00  0.00     0.192 C
BRANCH  28  29
ATOM     29  C   UNL     1      32.529  17.610  -4.919  1.00  0.00    -0.036 C
ATOM     30  C   UNL     1      33.558  17.605  -5.792  1.00  0.00     0.003 C
ATOM     31  G   UNL     1      34.030  18.725  -6.673  1.00  0.00     0.000 C
BRANCH  29  32
ATOM     32  C   UNL     1      31.730  18.841  -4.538  1.00  0.00     0.102 C
BRANCH  32  33
ATOM     33  S   UNL     1      30.844  19.538  -5.980  1.00  0.00    -0.156 SA
BRANCH  33  34
ATOM     34  C   UNL     1      30.927  21.329  -5.597  1.00  0.00     0.089 C
ATOM     35  G   UNL     1      32.272  21.986  -5.975  1.00  0.00     0.000 C
ENDBRANCH  33  34
ENDBRANCH  32  33
ENDBRANCH  29  32
ENDBRANCH  28  29
ENDBRANCH  27  28
ENDBRANCH  26  27
ENDBRANCH   1  26
BRANCH   6  36
ATOM     36  O   UNL     1      27.797  17.337  -5.538  1.00  0.00    -0.492 OA
BRANCH  36  37
ATOM     37  C   UNL     1      27.634  17.823  -6.895  1.00  0.00     0.245 C
BRANCH  37  38
ATOM     38  C   UNL     1      26.191  18.226  -7.274  1.00  0.00     0.126 C
BRANCH  38  39
ATOM     39  N   UNL     1      25.706  17.674  -8.550  1.00  0.00    -0.296 NA
ATOM     40  C   UNL     1      26.146  16.300  -8.778  1.00  0.00     0.085 C
ATOM     41  C   UNL     1      26.215  18.477  -9.693  1.00  0.00     0.066 C
ATOM     42  C   UNL     1      25.888  16.136 -10.263  1.00  0.00     0.017 C
ATOM     43  C   UNL     1      26.300  17.476 -10.855  1.00  0.00     0.021 C
ATOM     44  G   UNL     1      25.262  19.656  -9.983  1.00  0.00     0.000 C
ENDBRANCH  38  39
ENDBRANCH  37  38
ENDBRANCH  36  37
ENDBRANCH   6  36
TORSDOF 0
ENDMDL
MODEL 2
REMARK VINA RESULT:      -7.9      1.494      2.451
REMARK SMILES Cc1cnc2nc1-c1cccc(c1)COCC=C1COCc3cc(ccc3OCCN3CCC[C@H]3CSC1)N2
REMARK SMILES IDX 22 1 23 2 24 3 25 4 26 5 27 6 39 7 5 9 2 10 3 11 7 12 4 13
REMARK SMILES IDX 6 14 1 15 8 16 9 17 13 18 10 19 12 20 11 21 14 22 15 23
REMARK SMILES IDX 16 24 21 26 20 27 19 28 18 29 17 30 38 32 37 33 36 34 28 36
REMARK SMILES IDX 29 37 30 38 31 39 32 40 35 41 33 42 34 43
REMARK H PARENT 39 8
REMARK Flexibility Score:  100.800
ROOT
ATOM      1  C   UNL     1      28.873  15.228  -5.589  1.00  0.00     0.022 A
ATOM      2  C   UNL     1      28.974  13.832  -5.779  1.00  0.00     0.036 A
ATOM      3  C   UNL     1      27.841  13.012  -5.823  1.00  0.00     0.042 A
ATOM      4  C   UNL     1      26.591  13.603  -5.584  1.00  0.00     0.030 A
ATOM      5  C   UNL     1      26.462  14.980  -5.406  1.00  0.00     0.049 A
ATOM      6  C   UNL     1      27.593  15.790  -5.468  1.00  0.00     0.125 A
ENDROOT
BRANCH   3   7
ATOM      7  N   UNL     1      27.865  11.650  -6.145  1.00  0.00    -0.324 N
ATOM      8  H   UNL     1      27.464  11.390  -7.035  1.00  0.00     0.170 HD
BRANCH   7   9
ATOM      9  C   UNL     1      28.540  10.542  -5.642  1.00  0.00     0.227 A
ATOM     10  C   UNL     1      29.834   8.234  -4.971  1.00  0.00    -0.006 A
ATOM     11  C   UNL     1      28.592   8.258  -5.570  1.00  0.00     0.120 A
ATOM     12  C   UNL     1      30.344   9.482  -4.633  1.00  0.00     0.079 A
ATOM     13  N   UNL     1      27.927   9.378  -5.891  1.00  0.00    -0.221 NA
ATOM     14  N   UNL     1      29.718  10.628  -5.010  1.00  0.00    -0.212 NA
ATOM     15  C   UNL     1      30.500   6.918  -4.729  1.00  0.00     0.048 C
BRANCH  12  16
ATOM     16  C   UNL     1      31.584   9.709  -3.846  1.00  0.00     0.001 A
ATOM     17  C   UNL     1      32.146   8.721  -3.017  1.00  0.00     0.010 A
ATOM     18  C   UNL     1      32.213  10.968  -3.850  1.00  0.00     0.016 A
ATOM     19  C   UNL     1      33.316   8.952  -2.287  1.00  0.00     0.001 A
ATOM     20  C   UNL     1      33.358  11.233  -3.077  1.00  0.00    -0.022 A
ATOM     21  C   UNL     1      33.925  10.200  -2.326  1.00  0.00     0.006 A
BRANCH  20  22
ATOM     22  C   UNL     1      33.929  12.623  -3.004  1.00  0.00     0.196 C
BRANCH  22  23
ATOM     23  O   UNL     1      33.250  13.464  -2.075  1.00  0.00    -0.373 OA
BRANCH  23  24
ATOM     24  C   UNL     1      32.439  14.488  -2.658  1.00  0.00     0.188 C
ATOM     25  G   UNL     1      33.283  15.398  -3.502  1.00  0.00     0.000 C
ENDBRANCH  23  24
ENDBRANCH  22  23
ENDBRANCH  20  22
ENDBRANCH  12  16
ENDBRANCH   7   9
ENDBRANCH   3   7
BRANCH   1  26
ATOM     26  C   UNL     1      30.127  16.078  -5.566  1.00  0.00     0.200 C
BRANCH  26  27
ATOM     27  O   UNL     1      30.107  16.933  -4.426  1.00  0.00    -0.372 OA
BRANCH  27  28
ATOM     28  C   UNL     1      31.105  17.944  -4.414  1.00  0.00     0.192 C
BRANCH  28  29
ATOM     29  C   UNL     1      30.799  18.975  -5.479  1.00  0.00    -0.036 C
ATOM     30  C   UNL     1      29.620  19.631  -5.417  1.00  0.00     0.003 C
ATOM     31  G   UNL     1      29.184  20.827  -6.210  1.00  0.00     0.000 C
BRANCH  29  32
ATOM     32  C   UNL     1      31.878  19.242  -6.511  1.00  0.00     0.102 C
BRANCH  32  33
ATOM     33  S   UNL     1      33.499  19.556  -5.722  1.00  0.00    -0.156 SA
BRANCH  33  34
ATOM     34  C   UNL     1      34.442  18.088  -6.285  1.00  0.00     0.089 C
ATOM     35  G   UNL     1      33.651  17.164  -7.235  1.00  0.00     0.000 C
ENDBRANCH  33  34
ENDBRANCH  32  33
ENDBRANCH  29  32
ENDBRANCH  28  29
ENDBRANCH  27  28
ENDBRANCH  26  27
ENDBRANCH   1  26
BRANCH   6  36
ATOM     36  O   UNL     1      27.456  17.152  -5.450  1.00  0.00    -0.492 OA
BRANCH  36  37
ATOM     37  C   UNL     1      26.336  17.631  -6.239  1.00  0.00     0.245 C
BRANCH  37  38
ATOM     38  C   UNL     1      26.724  18.371  -7.539  1.00  0.00     0.126 C
BRANCH  38  39
ATOM     39  N   UNL     1      26.119  19.704  -7.700  1.00  0.00    -0.296 NA
ATOM     40  C   UNL     1      24.727  19.754  -7.261  1.00  0.00     0.085 C
ATOM     41  C   UNL     1      26.127  20.111  -9.129  1.00  0.00     0.066 C
ATOM     42  C   UNL     1      24.248  21.042  -7.899  1.00  0.00     0.017 C
ATOM     43  C   UNL     1      24.911  21.039  -9.269  1.00  0.00     0.021 C
ATOM     44  G   UNL     1      27.460  20.809  -9.477  1.00  0.00     0.000 C
ENDBRANCH  38  39
ENDBRANCH  37  38
ENDBRANCH  36  37
ENDBRANCH   6  36
TORSDOF 0
ENDMDL
MODEL 3
REMARK VINA RESULT:      -7.6      2.998      6.506
REMARK SMILES Cc1cnc2nc1-c1cccc(c1)COCC=C1COCc3cc(ccc3OCCN3CCC[C@H]3CSC1)N2
REMARK SMILES IDX 22 1 23 2 24 3 25 4 26 5 27 6 39 7 5 9 2 10 3 11 7 12 4 13
REMARK SMILES IDX 6 14 1 15 8 16 9 17 13 18 10 19 12 20 11 21 14 22 15 23
REMARK SMILES IDX 16 24 21 26 20 27 19 28 18 29 17 30 38 32 37 33 36 34 28 36
REMARK SMILES IDX 29 37 30 38 31 39 32 40 35 41 33 42 34 43
REMARK H PARENT 39 8
REMARK Flexibility Score:  100.800
ROOT
ATOM      1  C   UNL     1      27.965  10.704  -5.691  1.00  0.00     0.022 A
ATOM      2  C   UNL     1      29.086  10.634  -4.835  1.00  0.00     0.036 A
ATOM      3  C   UNL     1      29.994   9.571  -4.895  1.00  0.00     0.042 A
ATOM      4  C   UNL     1      29.712   8.515  -5.777  1.00  0.00     0.030 A
ATOM      5  C   UNL     1      28.620   8.564  -6.642  1.00  0.00     0.049 A
ATOM      6  C   UNL     1      27.788   9.681  -6.636  1.00  0.00     0.125 A
ENDROOT
BRANCH   3   7
ATOM      7  N   UNL     1      31.192   9.514  -4.176  1.00  0.00    -0.324 N
ATOM      8  H   UNL     1      31.669   8.624  -4.162  1.00  0.00     0.170 HD
BRANCH   7   9
ATOM      9  C   UNL     1      32.058  10.468  -3.648  1.00  0.00     0.227 A
ATOM     10  C   UNL     1      34.008  12.165  -2.771  1.00  0.00    -0.006 A
ATOM     11  C   UNL     1      34.061  10.798  -2.597  1.00  0.00     0.120 A
ATOM     12  C   UNL     1      32.830  12.637  -3.337  1.00  0.00     0.079 A
ATOM     13  N   UNL     1      33.106   9.945  -3.000  1.00  0.00    -0.221 NA
ATOM     14  N   UNL     1      31.883  11.785  -3.815  1.00  0.00    -0.212 NA
ATOM     15  C   UNL     1      35.170  12.999  -2.338  1.00  0.00     0.048 C
BRANCH  12  16
ATOM     16  C   UNL     1      32.472  14.071  -3.484  1.00  0.00     0.001 A
ATOM     17  C   UNL     1      32.045  14.860  -2.401  1.00  0.00     0.010 A
ATOM     18  C   UNL     1      32.483  14.686  -4.751  1.00  0.00     0.016 A
ATOM     19  C   UNL     1      31.716  16.210  -2.557  1.00  0.00     0.001 A
ATOM     20  C   UNL     1      32.101  16.027  -4.934  1.00  0.00    -0.022 A
ATOM     21  C   UNL     1      31.754  16.793  -3.818  1.00  0.00     0.006 A
BRANCH  20  22
ATOM     22  C   UNL     1      32.000  16.613  -6.316  1.00  0.00     0.196 C
BRANCH  22  23
ATOM     23  O   UNL     1      33.260  16.738  -6.969  1.00  0.00    -0.373 OA
BRANCH  23  24
ATOM     24  C   UNL     1      33.947  17.971  -6.739  1.00  0.00     0.188 C
ATOM     25  G   UNL     1      32.964  19.063  -6.437  1.00  0.00     0.000 C
ENDBRANCH  23  24
ENDBRANCH  22  23
ENDBRANCH  20  22
ENDBRANCH  12  16
ENDBRANCH   7   9
ENDBRANCH   3   7
BRANCH   1  26
ATOM     26  C   UNL     1      27.020  11.884  -5.601  1.00  0.00     0.200 C
BRANCH  26  27
ATOM     27  O   UNL     1      27.656  13.049  -6.117  1.00  0.00    -0.372 OA
BRANCH  27  28
ATOM     28  C   UNL     1      26.773  14.077  -6.546  1.00  0.00     0.192 C
BRANCH  28  29
ATOM     29  C   UNL     1      27.438  15.426  -6.373  1.00  0.00    -0.036 C
ATOM     30  C   UNL     1      27.451  15.981  -5.142  1.00  0.00     0.003 C
ATOM     31  G   UNL     1      28.219  17.182  -4.676  1.00  0.00     0.000 C
BRANCH  29  32
ATOM     32  C   UNL     1      28.100  16.031  -7.595  1.00  0.00     0.102 C
BRANCH  32  33
ATOM     33  S   UNL     1      26.876  16.835  -8.693  1.00  0.00    -0.156 SA
BRANCH  33  34
ATOM     34  C   UNL     1      26.954  18.562  -8.083  1.00  0.00     0.089 C
ATOM     35  G   UNL     1      25.841  18.920  -7.075  1.00  0.00     0.000 C
ENDBRANCH  33  34
ENDBRANCH  32  33
ENDBRANCH  29  32
ENDBRANCH  28  29
ENDBRANCH  27  28
ENDBRANCH  26  27
ENDBRANCH   1  26
BRANCH   6  36
ATOM     36  O   UNL     1      26.808   9.805  -7.584  1.00  0.00    -0.492 OA
BRANCH  36  37
ATOM     37  C   UNL     1      26.771   8.701  -8.525  1.00  0.00     0.245 C
BRANCH  37  38
ATOM     38  C   UNL     1      26.007   8.988  -9.837  1.00  0.00     0.126 C
BRANCH  38  39
ATOM     39  N   UNL     1      26.742   9.802 -10.820  1.00  0.00    -0.296 NA
ATOM     40  C   UNL     1      28.192   9.667 -10.698  1.00  0.00     0.085 C
ATOM     41  C   UNL     1      26.434  11.244 -10.636  1.00  0.00     0.066 C
ATOM     42  C   UNL     1      28.680  10.865 -11.487  1.00  0.00     0.017 C
ATOM     43  C   UNL     1      27.699  11.970 -11.118  1.00  0.00     0.021 C
ATOM     44  G   UNL     1      25.176  11.628 -11.444  1.00  0.00     0.000 C
ENDBRANCH  38  39
ENDBRANCH  37  38
ENDBRANCH  36  37
ENDBRANCH   6  36
TORSDOF 0
ENDMDL
MODEL 4
REMARK VINA RESULT:      -7.6      3.188      6.982
REMARK SMILES Cc1cnc2nc1-c1cccc(c1)COCC=C1COCc3cc(ccc3OCCN3CCC[C@H]3CSC1)N2
REMARK SMILES IDX 22 1 23 2 24 3 25 4 26 5 27 6 39 7 5 9 2 10 3 11 7 12 4 13
REMARK SMILES IDX 6 14 1 15 8 16 9 17 13 18 10 19 12 20 11 21 14 22 15 23
REMARK SMILES IDX 16 24 21 26 20 27 19 28 18 29 17 30 38 32 37 33 36 34 28 36
REMARK SMILES IDX 29 37 30 38 31 39 32 40 35 41 33 42 34 43
REMARK H PARENT 39 8
REMARK Flexibility Score:  100.800
ROOT
ATOM      1  C   UNL     1      28.662  10.287  -5.145  1.00  0.00     0.022 A
ATOM      2  C   UNL     1      29.855  10.492  -4.418  1.00  0.00     0.036 A
ATOM      3  C   UNL     1      30.800   9.473  -4.250  1.00  0.00     0.042 A
ATOM      4  C   UNL     1      30.489   8.199  -4.752  1.00  0.00     0.030 A
ATOM      5  C   UNL     1      29.325   7.972  -5.484  1.00  0.00     0.049 A
ATOM      6  C   UNL     1      28.449   9.027  -5.727  1.00  0.00     0.125 A
ENDROOT
BRANCH   3   7
ATOM      7  N   UNL     1      32.057   9.652  -3.662  1.00  0.00    -0.324 N
ATOM      8  H   UNL     1      32.681   8.858  -3.681  1.00  0.00     0.170 HD
BRANCH   7   9
ATOM      9  C   UNL     1      32.792  10.760  -3.252  1.00  0.00     0.227 A
ATOM     10  C   UNL     1      34.487  12.811  -2.646  1.00  0.00    -0.006 A
ATOM     11  C   UNL     1      34.832  11.483  -2.515  1.00  0.00     0.120 A
ATOM     12  C   UNL     1      33.166  13.040  -3.012  1.00  0.00     0.079 A
ATOM     13  N   UNL     1      34.010  10.457  -2.787  1.00  0.00    -0.221 NA
ATOM     14  N   UNL     1      32.341  12.016  -3.358  1.00  0.00    -0.212 NA
ATOM     15  C   UNL     1      35.518  13.860  -2.377  1.00  0.00     0.048 C
BRANCH  12  16
ATOM     16  C   UNL     1      32.518  14.376  -3.067  1.00  0.00     0.001 A
ATOM     17  C   UNL     1      31.442  14.730  -2.233  1.00  0.00     0.010 A
ATOM     18  C   UNL     1      32.921  15.328  -4.023  1.00  0.00     0.016 A
ATOM     19  C   UNL     1      30.847  15.994  -2.297  1.00  0.00     0.001 A
ATOM     20  C   UNL     1      32.295  16.582  -4.137  1.00  0.00    -0.022 A
ATOM     21  C   UNL     1      31.279  16.919  -3.238  1.00  0.00     0.006 A
BRANCH  20  22
ATOM     22  C   UNL     1      32.663  17.524  -5.251  1.00  0.00     0.196 C
BRANCH  22  23
ATOM     23  O   UNL     1      33.903  17.201  -5.876  1.00  0.00    -0.373 OA
BRANCH  23  24
ATOM     24  C   UNL     1      34.254  18.021  -6.994  1.00  0.00     0.188 C
ATOM     25  G   UNL     1      33.825  19.438  -6.751  1.00  0.00     0.000 C
ENDBRANCH  23  24
ENDBRANCH  22  23
ENDBRANCH  20  22
ENDBRANCH  12  16
ENDBRANCH   7   9
ENDBRANCH   3   7
BRANCH   1  26
ATOM     26  C   UNL     1      27.678  11.425  -5.316  1.00  0.00     0.200 C
BRANCH  26  27
ATOM     27  O   UNL     1      28.286  12.650  -4.916  1.00  0.00    -0.372 OA
BRANCH  27  28
ATOM     28  C   UNL     1      28.962  13.352  -5.950  1.00  0.00     0.192 C
BRANCH  28  29
ATOM     29  C   UNL     1      28.405  14.755  -6.063  1.00  0.00    -0.036 C
ATOM     30  C   UNL     1      28.183  15.450  -4.926  1.00  0.00     0.003 C
ATOM     31  G   UNL     1      27.848  16.905  -4.782  1.00  0.00     0.000 C
BRANCH  29  32
ATOM     32  C   UNL     1      28.192  15.303  -7.461  1.00  0.00     0.102 C
BRANCH  32  33
ATOM     33  S   UNL     1      27.177  14.170  -8.478  1.00  0.00    -0.156 SA
BRANCH  33  34
ATOM     34  C   UNL     1      25.497  14.575  -7.865  1.00  0.00     0.089 C
ATOM     35  G   UNL     1      24.503  13.396  -7.939  1.00  0.00     0.000 C
ENDBRANCH  33  34
ENDBRANCH  32  33
ENDBRANCH  29  32
ENDBRANCH  28  29
ENDBRANCH  27  28
ENDBRANCH  26  27
ENDBRANCH   1  26
BRANCH   6  36
ATOM     36  O   UNL     1      27.387   8.849  -6.573  1.00  0.00    -0.492 OA
BRANCH  36  37
ATOM     37  C   UNL     1      27.706   9.111  -7.964  1.00  0.00     0.245 C
BRANCH  37  38
ATOM     38  C   UNL     1      26.494   9.469  -8.854  1.00  0.00     0.126 C
BRANCH  38  39
ATOM     39  N   UNL     1      26.817   9.739 -10.265  1.00  0.00    -0.296 NA
ATOM     40  C   UNL     1      28.242   9.603 -10.557  1.00  0.00     0.085 C
ATOM     41  C   UNL     1      26.441  11.131 -10.628  1.00  0.00     0.066 C
ATOM     42  C   UNL     1      28.352  10.315 -11.891  1.00  0.00     0.017 C
ATOM     43  C   UNL     1      27.427  11.515 -11.742  1.00  0.00     0.021 C
ATOM     44  G   UNL     1      24.967  11.183 -11.084  1.00  0.00     0.000 C
ENDBRANCH  38  39
ENDBRANCH  37  38
ENDBRANCH  36  37
ENDBRANCH   6  36
TORSDOF 0
ENDMDL
MODEL 5
REMARK VINA RESULT:      -7.6      3.019      7.634
REMARK SMILES Cc1cnc2nc1-c1cccc(c1)COCC=C1COCc3cc(ccc3OCCN3CCC[C@H]3CSC1)N2
REMARK SMILES IDX 22 1 23 2 24 3 25 4 26 5 27 6 39 7 5 9 2 10 3 11 7 12 4 13
REMARK SMILES IDX 6 14 1 15 8 16 9 17 13 18 10 19 12 20 11 21 14 22 15 23
REMARK SMILES IDX 16 24 21 26 20 27 19 28 18 29 17 30 38 32 37 33 36 34 28 36
REMARK SMILES IDX 29 37 30 38 31 39 32 40 35 41 33 42 34 43
REMARK H PARENT 39 8
REMARK Flexibility Score:  100.800
ROOT
ATOM      1  C   UNL     1      29.001   9.904  -4.863  1.00  0.00     0.022 A
ATOM      2  C   UNL     1      30.175  10.234  -4.151  1.00  0.00     0.036 A
ATOM      3  C   UNL     1      31.212   9.311  -3.975  1.00  0.00     0.042 A
ATOM      4  C   UNL     1      31.019   8.005  -4.452  1.00  0.00     0.030 A
ATOM      5  C   UNL     1      29.876   7.656  -5.169  1.00  0.00     0.049 A
ATOM      6  C   UNL     1      28.902   8.620  -5.421  1.00  0.00     0.125 A
ENDROOT
BRANCH   3   7
ATOM      7  N   UNL     1      32.452   9.617  -3.403  1.00  0.00    -0.324 N
ATOM      8  H   UNL     1      33.137   8.875  -3.386  1.00  0.00     0.170 HD
BRANCH   7   9
ATOM      9  C   UNL     1      33.097  10.799  -3.051  1.00  0.00     0.227 A
ATOM     10  C   UNL     1      34.625  13.006  -2.553  1.00  0.00    -0.006 A
ATOM     11  C   UNL     1      35.073  11.716  -2.356  1.00  0.00     0.120 A
ATOM     12  C   UNL     1      33.291  13.111  -2.927  1.00  0.00     0.079 A
ATOM     13  N   UNL     1      34.335  10.617  -2.574  1.00  0.00    -0.221 NA
ATOM     14  N   UNL     1      32.549  12.009  -3.219  1.00  0.00    -0.212 NA
ATOM     15  C   UNL     1      35.570  14.144  -2.340  1.00  0.00     0.048 C
BRANCH  12  16
ATOM     16  C   UNL     1      32.540  14.387  -3.048  1.00  0.00     0.001 A
ATOM     17  C   UNL     1      31.615  14.816  -2.079  1.00  0.00     0.010 A
ATOM     18  C   UNL     1      32.679  15.194  -4.194  1.00  0.00     0.016 A
ATOM     19  C   UNL     1      30.920  16.022  -2.208  1.00  0.00     0.001 A
ATOM     20  C   UNL     1      31.945  16.382  -4.364  1.00  0.00    -0.022 A
ATOM     21  C   UNL     1      31.093  16.807  -3.342  1.00  0.00     0.006 A
BRANCH  20  22
ATOM     22  C   UNL     1      32.023  17.151  -5.655  1.00  0.00     0.196 C
BRANCH  22  23
ATOM     23  O   UNL     1      32.688  18.405  -5.526  1.00  0.00    -0.373 OA
BRANCH  23  24
ATOM     24  C   UNL     1      33.478  18.795  -6.653  1.00  0.00     0.188 C
ATOM     25  G   UNL     1      34.655  17.877  -6.803  1.00  0.00     0.000 C
ENDBRANCH  23  24
ENDBRANCH  22  23
ENDBRANCH  20  22
ENDBRANCH  12  16
ENDBRANCH   7   9
ENDBRANCH   3   7
BRANCH   1  26
ATOM     26  C   UNL     1      27.912  10.942  -5.044  1.00  0.00     0.200 C
BRANCH  26  27
ATOM     27  O   UNL     1      28.386  11.995  -5.878  1.00  0.00    -0.372 OA
BRANCH  27  28
ATOM     28  C   UNL     1      28.838  13.152  -5.189  1.00  0.00     0.192 C
BRANCH  28  29
ATOM     29  C   UNL     1      27.919  14.316  -5.489  1.00  0.00    -0.036 C
ATOM     30  C   UNL     1      28.165  15.499  -4.886  1.00  0.00     0.003 C
ATOM     31  G   UNL     1      27.544  16.833  -5.177  1.00  0.00     0.000 C
BRANCH  29  32
ATOM     32  C   UNL     1      26.816  14.081  -6.503  1.00  0.00     0.102 C
BRANCH  32  33
ATOM     33  S   UNL     1      27.326  14.602  -8.183  1.00  0.00    -0.156 SA
BRANCH  33  34
ATOM     34  C   UNL     1      26.063  15.882  -8.541  1.00  0.00     0.089 C
ATOM     35  G   UNL     1      26.655  17.265  -8.884  1.00  0.00     0.000 C
ENDBRANCH  33  34
ENDBRANCH  32  33
ENDBRANCH  29  32
ENDBRANCH  28  29
ENDBRANCH  27  28
ENDBRANCH  26  27
ENDBRANCH   1  26
BRANCH   6  36
ATOM     36  O   UNL     1      27.855   8.327  -6.253  1.00  0.00    -0.492 OA
BRANCH  36  37
ATOM     37  C   UNL     1      28.015   7.073  -6.965  1.00  0.00     0.245 C
BRANCH  37  38
ATOM     38  C   UNL     1      26.704   6.296  -7.219  1.00  0.00     0.126 C
BRANCH  38  39
ATOM     39  N   UNL     1      25.914   6.766  -8.370  1.00  0.00    -0.296 NA
ATOM     40  C   UNL     1      26.745   7.275  -9.458  1.00  0.00     0.085 C
ATOM     41  C   UNL     1      25.017   7.880  -7.965  1.00  0.00     0.066 C
ATOM     42  C   UNL     1      25.734   8.047 -10.282  1.00  0.00     0.017 C
ATOM     43  C   UNL     1      24.850   8.719  -9.241  1.00  0.00     0.021 C
ATOM     44  G   UNL     1      23.680   7.321  -7.434  1.00  0.00     0.000 C
ENDBRANCH  38  39
ENDBRANCH  37  38
ENDBRANCH  36  37
ENDBRANCH   6  36
TORSDOF 0
ENDMDL
MODEL 6
REMARK VINA RESULT:      -7.6      1.523      2.340
REMARK SMILES Cc1cnc2nc1-c1cccc(c1)COCC=C1COCc3cc(ccc3OCCN3CCC[C@H]3CSC1)N2
REMARK SMILES IDX 22 1 23 2 24 3 25 4 26 5 27 6 39 7 5 9 2 10 3 11 7 12 4 13
REMARK SMILES IDX 6 14 1 15 8 16 9 17 13 18 10 19 12 20 11 21 14 22 15 23
REMARK SMILES IDX 16 24 21 26 20 27 19 28 18 29 17 30 38 32 37 33 36 34 28 36
REMARK SMILES IDX 29 37 30 38 31 39 32 40 35 41 33 42 34 43
REMARK H PARENT 39 8
REMARK Flexibility Score:  100.800
ROOT
ATOM      1  C   UNL     1      28.249  14.832  -6.294  1.00  0.00     0.022 A
ATOM      2  C   UNL     1      28.006  13.613  -5.626  1.00  0.00     0.036 A
ATOM      3  C   UNL     1      27.228  12.600  -6.199  1.00  0.00     0.042 A
ATOM      4  C   UNL     1      26.613  12.864  -7.434  1.00  0.00     0.030 A
ATOM      5  C   UNL     1      26.846  14.054  -8.121  1.00  0.00     0.049 A
ATOM      6  C   UNL     1      27.706  15.005  -7.577  1.00  0.00     0.125 A
ENDROOT
BRANCH   3   7
ATOM      7  N   UNL     1      27.066  11.323  -5.652  1.00  0.00    -0.324 N
ATOM      8  H   UNL     1      26.119  10.980  -5.579  1.00  0.00     0.170 HD
BRANCH   7   9
ATOM      9  C   UNL     1      27.925  10.259  -5.391  1.00  0.00     0.227 A
ATOM     10  C   UNL     1      29.568   8.087  -5.208  1.00  0.00    -0.006 A
ATOM     11  C   UNL     1      28.285   8.024  -5.709  1.00  0.00     0.120 A
ATOM     12  C   UNL     1      29.937   9.327  -4.699  1.00  0.00     0.079 A
ATOM     13  N   UNL     1      27.450   9.073  -5.790  1.00  0.00    -0.221 NA
ATOM     14  N   UNL     1      29.133  10.415  -4.835  1.00  0.00    -0.212 NA
ATOM     15  C   UNL     1      30.421   6.861  -5.237  1.00  0.00     0.048 C
BRANCH  12  16
ATOM     16  C   UNL     1      31.202   9.605  -3.971  1.00  0.00     0.001 A
ATOM     17  C   UNL     1      31.854   8.635  -3.188  1.00  0.00     0.010 A
ATOM     18  C   UNL     1      31.767  10.894  -3.985  1.00  0.00     0.016 A
ATOM     19  C   UNL     1      33.046   8.914  -2.513  1.00  0.00     0.001 A
ATOM     20  C   UNL     1      32.935  11.205  -3.266  1.00  0.00    -0.022 A
ATOM     21  C   UNL     1      33.590  10.191  -2.561  1.00  0.00     0.006 A
BRANCH  20  22
ATOM     22  C   UNL     1      33.439  12.621  -3.198  1.00  0.00     0.196 C
BRANCH  22  23
ATOM     23  O   UNL     1      33.091  13.399  -4.341  1.00  0.00    -0.373 OA
BRANCH  23  24
ATOM     24  C   UNL     1      32.414  14.628  -4.058  1.00  0.00     0.188 C
ATOM     25  G   UNL     1      32.420  14.894  -2.582  1.00  0.00     0.000 C
ENDBRANCH  23  24
ENDBRANCH  22  23
ENDBRANCH  20  22
ENDBRANCH  12  16
ENDBRANCH   7   9
ENDBRANCH   3   7
BRANCH   1  26
ATOM     26  C   UNL     1      29.113  15.891  -5.641  1.00  0.00     0.200 C
BRANCH  26  27
ATOM     27  O   UNL     1      29.566  16.816  -6.625  1.00  0.00    -0.372 OA
BRANCH  27  28
ATOM     28  C   UNL     1      30.939  17.168  -6.534  1.00  0.00     0.192 C
BRANCH  28  29
ATOM     29  C   UNL     1      31.069  18.603  -6.070  1.00  0.00    -0.036 C
ATOM     30  C   UNL     1      30.144  19.496  -6.483  1.00  0.00     0.003 C
ATOM     31  G   UNL     1      29.932  20.900  -5.999  1.00  0.00     0.000 C
BRANCH  29  32
ATOM     32  C   UNL     1      32.204  18.920  -5.116  1.00  0.00     0.102 C
BRANCH  32  33
ATOM     33  S   UNL     1      33.655  19.600  -6.002  1.00  0.00    -0.156 SA
BRANCH  33  34
ATOM     34  C   UNL     1      33.695  21.306  -5.330  1.00  0.00     0.089 C
ATOM     35  G   UNL     1      34.628  22.261  -6.105  1.00  0.00     0.000 C
ENDBRANCH  33  34
ENDBRANCH  32  33
ENDBRANCH  29  32
ENDBRANCH  28  29
ENDBRANCH  27  28
ENDBRANCH  26  27
ENDBRANCH   1  26
BRANCH   6  36
ATOM     36  O   UNL     1      28.060  16.103  -8.314  1.00  0.00    -0.492 OA
BRANCH  36  37
ATOM     37  C   UNL     1      27.053  16.500  -9.281  1.00  0.00     0.245 C
BRANCH  37  38
ATOM     38  C   UNL     1      25.910  17.370  -8.711  1.00  0.00     0.126 C
BRANCH  38  39
ATOM     39  N   UNL     1      25.914  18.773  -9.158  1.00  0.00    -0.296 NA
ATOM     40  C   UNL     1      26.287  18.920 -10.563  1.00  0.00     0.085 C
ATOM     41  C   UNL     1      26.895  19.567  -8.374  1.00  0.00     0.066 C
ATOM     42  C   UNL     1      26.614  20.397 -10.641  1.00  0.00     0.017 C
ATOM     43  C   UNL     1      27.339  20.681  -9.333  1.00  0.00     0.021 C
ATOM     44  G   UNL     1      26.236  20.108  -7.087  1.00  0.00     0.000 C
ENDBRANCH  38  39
ENDBRANCH  37  38
ENDBRANCH  36  37
ENDBRANCH   6  36
TORSDOF 0
ENDMDL
MODEL 7
REMARK VINA RESULT:      -7.6      2.622      5.183
REMARK SMILES Cc1cnc2nc1-c1cccc(c1)COCC=C1COCc3cc(ccc3OCCN3CCC[C@H]3CSC1)N2
REMARK SMILES IDX 22 1 23 2 24 3 25 4 26 5 27 6 39 7 5 9 2 10 3 11 7 12 4 13
REMARK SMILES IDX 6 14 1 15 8 16 9 17 13 18 10 19 12 20 11 21 14 22 15 23
REMARK SMILES IDX 16 24 21 26 20 27 19 28 18 29 17 30 38 32 37 33 36 34 28 36
REMARK SMILES IDX 29 37 30 38 31 39 32 40 35 41 33 42 34 43
REMARK H PARENT 39 8
REMARK Flexibility Score:  100.800
ROOT
ATOM      1  C   UNL     1      29.016  17.247  -5.007  1.00  0.00     0.022 A
ATOM      2  C   UNL     1      30.237  17.120  -4.309  1.00  0.00     0.036 A
ATOM      3  C   UNL     1      30.720  15.876  -3.890  1.00  0.00     0.042 A
ATOM      4  C   UNL     1      29.909  14.749  -4.105  1.00  0.00     0.030 A
ATOM      5  C   UNL     1      28.706  14.844  -4.803  1.00  0.00     0.049 A
ATOM      6  C   UNL     1      28.295  16.078  -5.300  1.00  0.00     0.125 A
ENDROOT
BRANCH   3   7
ATOM      7  N   UNL     1      31.981  15.669  -3.321  1.00  0.00    -0.324 N
ATOM      8  H   UNL     1      32.331  16.402  -2.720  1.00  0.00     0.170 HD
BRANCH   7   9
ATOM      9  C   UNL     1      32.814  14.564  -3.171  1.00  0.00     0.227 A
ATOM     10  C   UNL     1      34.555  12.545  -2.588  1.00  0.00    -0.006 A
ATOM     11  C   UNL     1      34.926  13.872  -2.639  1.00  0.00     0.120 A
ATOM     12  C   UNL     1      33.241  12.290  -2.961  1.00  0.00     0.079 A
ATOM     13  N   UNL     1      34.094  14.880  -2.943  1.00  0.00    -0.221 NA
ATOM     14  N   UNL     1      32.366  13.302  -3.206  1.00  0.00    -0.212 NA
ATOM     15  C   UNL     1      35.562  11.523  -2.167  1.00  0.00     0.048 C
BRANCH  12  16
ATOM     16  C   UNL     1      32.653  10.937  -3.135  1.00  0.00     0.001 A
ATOM     17  C   UNL     1      33.170   9.798  -2.491  1.00  0.00     0.010 A
ATOM     18  C   UNL     1      31.579  10.731  -4.022  1.00  0.00     0.016 A
ATOM     19  C   UNL     1      32.601   8.533  -2.663  1.00  0.00     0.001 A
ATOM     20  C   UNL     1      31.032   9.455  -4.249  1.00  0.00    -0.022 A
ATOM     21  C   UNL     1      31.530   8.365  -3.531  1.00  0.00     0.006 A
BRANCH  20  22
ATOM     22  C   UNL     1      29.973   9.252  -5.298  1.00  0.00     0.196 C
BRANCH  22  23
ATOM     23  O   UNL     1      29.367   7.963  -5.246  1.00  0.00    -0.373 OA
BRANCH  23  24
ATOM     24  C   UNL     1      29.182   7.324  -6.512  1.00  0.00     0.188 C
ATOM     25  G   UNL     1      29.037   8.353  -7.595  1.00  0.00     0.000 C
ENDBRANCH  23  24
ENDBRANCH  22  23
ENDBRANCH  20  22
ENDBRANCH  12  16
ENDBRANCH   7   9
ENDBRANCH   3   7
BRANCH   1  26
ATOM     26  C   UNL     1      28.542  18.614  -5.456  1.00  0.00     0.200 C
BRANCH  26  27
ATOM     27  O   UNL     1      29.533  19.218  -6.282  1.00  0.00    -0.372 OA
BRANCH  27  28
ATOM     28  C   UNL     1      29.610  20.634  -6.192  1.00  0.00     0.192 C
BRANCH  28  29
ATOM     29  C   UNL     1      30.990  21.042  -5.724  1.00  0.00    -0.036 C
ATOM     30  C   UNL     1      31.089  21.853  -4.649  1.00  0.00     0.003 C
ATOM     31  G   UNL     1      32.322  22.216  -3.875  1.00  0.00     0.000 C
BRANCH  29  32
ATOM     32  C   UNL     1      32.173  20.453  -6.469  1.00  0.00     0.102 C
BRANCH  32  33
ATOM     33  S   UNL     1      32.954  19.095  -5.522  1.00  0.00    -0.156 SA
BRANCH  33  34
ATOM     34  C   UNL     1      33.497  17.997  -6.886  1.00  0.00     0.089 C
ATOM     35  G   UNL     1      33.080  16.522  -6.704  1.00  0.00     0.000 C
ENDBRANCH  33  34
ENDBRANCH  32  33
ENDBRANCH  29  32
ENDBRANCH  28  29
ENDBRANCH  27  28
ENDBRANCH  26  27
ENDBRANCH   1  26
BRANCH   6  36
ATOM     36  O   UNL     1      27.198  16.152  -6.115  1.00  0.00    -0.492 OA
BRANCH  36  37
ATOM     37  C   UNL     1      26.616  14.859  -6.420  1.00  0.00     0.245 C
BRANCH  37  38
ATOM     38  C   UNL     1      26.113  14.696  -7.873  1.00  0.00     0.126 C
BRANCH  38  39
ATOM     39  N   UNL     1      25.668  13.338  -8.228  1.00  0.00    -0.296 NA
ATOM     40  C   UNL     1      26.650  12.312  -7.890  1.00  0.00     0.085 C
ATOM     41  C   UNL     1      25.433  13.234  -9.692  1.00  0.00     0.066 C
ATOM     42  C   UNL     1      26.158  11.133  -8.706  1.00  0.00     0.017 C
ATOM     43  C   UNL     1      25.712  11.759 -10.020  1.00  0.00     0.021 C
ATOM     44  G   UNL     1      23.989  13.663 -10.032  1.00  0.00     0.000 C
ENDBRANCH  38  39
ENDBRANCH  37  38
ENDBRANCH  36  37
ENDBRANCH   6  36
TORSDOF 0
ENDMDL
MODEL 8
REMARK VINA RESULT:      -7.5      1.527      2.258
REMARK SMILES Cc1cnc2nc1-c1cccc(c1)COCC=C1COCc3cc(ccc3OCCN3CCC[C@H]3CSC1)N2
REMARK SMILES IDX 22 1 23 2 24 3 25 4 26 5 27 6 39 7 5 9 2 10 3 11 7 12 4 13
REMARK SMILES IDX 6 14 1 15 8 16 9 17 13 18 10 19 12 20 11 21 14 22 15 23
REMARK SMILES IDX 16 24 21 26 20 27 19 28 18 29 17 30 38 32 37 33 36 34 28 36
REMARK SMILES IDX 29 37 30 38 31 39 32 40 35 41 33 42 34 43
REMARK H PARENT 39 8
REMARK Flexibility Score:  100.800
ROOT
ATOM      1  C   UNL     1      28.399  15.170  -7.079  1.00  0.00     0.022 A
ATOM      2  C   UNL     1      28.427  14.295  -5.972  1.00  0.00     0.036 A
ATOM      3  C   UNL     1      27.716  13.089  -5.968  1.00  0.00     0.042 A
ATOM      4  C   UNL     1      26.892  12.809  -7.070  1.00  0.00     0.030 A
ATOM      5  C   UNL     1      26.856  13.649  -8.182  1.00  0.00     0.049 A
ATOM      6  C   UNL     1      27.652  14.792  -8.205  1.00  0.00     0.125 A
ENDROOT
BRANCH   3   7
ATOM      7  N   UNL     1      27.812  12.119  -4.965  1.00  0.00    -0.324 N
ATOM      8  H   UNL     1      27.076  12.109  -4.274  1.00  0.00     0.170 HD
BRANCH   7   9
ATOM      9  C   UNL     1      28.565  10.960  -4.800  1.00  0.00     0.227 A
ATOM     10  C   UNL     1      29.983   8.627  -4.810  1.00  0.00    -0.006 A
ATOM     11  C   UNL     1      28.686   8.726  -5.268  1.00  0.00     0.120 A
ATOM     12  C   UNL     1      30.490   9.788  -4.239  1.00  0.00     0.079 A
ATOM     13  N   UNL     1      27.961   9.855  -5.255  1.00  0.00    -0.221 NA
ATOM     14  N   UNL     1      29.798  10.958  -4.278  1.00  0.00    -0.212 NA
ATOM     15  C   UNL     1      30.705   7.326  -4.945  1.00  0.00     0.048 C
BRANCH  12  16
ATOM     16  C   UNL     1      31.798   9.890  -3.540  1.00  0.00     0.001 A
ATOM     17  C   UNL     1      32.326   8.842  -2.765  1.00  0.00     0.010 A
ATOM     18  C   UNL     1      32.536  11.089  -3.574  1.00  0.00     0.016 A
ATOM     19  C   UNL     1      33.560   8.955  -2.118  1.00  0.00     0.001 A
ATOM     20  C   UNL     1      33.752  11.237  -2.883  1.00  0.00    -0.022 A
ATOM     21  C   UNL     1      34.275  10.144  -2.186  1.00  0.00     0.006 A
BRANCH  20  22
ATOM     22  C   UNL     1      34.448  12.570  -2.835  1.00  0.00     0.196 C
BRANCH  22  23
ATOM     23  O   UNL     1      33.681  13.628  -3.402  1.00  0.00    -0.373 OA
BRANCH  23  24
ATOM     24  C   UNL     1      34.128  14.947  -3.078  1.00  0.00     0.188 C
ATOM     25  G   UNL     1      35.553  14.910  -2.609  1.00  0.00     0.000 C
ENDBRANCH  23  24
ENDBRANCH  22  23
ENDBRANCH  20  22
ENDBRANCH  12  16
ENDBRANCH   7   9
ENDBRANCH   3   7
BRANCH   1  26
ATOM     26  C   UNL     1      29.200  16.456  -7.044  1.00  0.00     0.200 C
BRANCH  26  27
ATOM     27  O   UNL     1      30.580  16.157  -6.854  1.00  0.00    -0.372 OA
BRANCH  27  28
ATOM     28  C   UNL     1      31.379  17.250  -6.425  1.00  0.00     0.192 C
BRANCH  28  29
ATOM     29  C   UNL     1      31.198  17.463  -4.937  1.00  0.00    -0.036 C
ATOM     30  C   UNL     1      30.940  16.387  -4.163  1.00  0.00     0.003 C
ATOM     31  G   UNL     1      30.935  16.305  -2.665  1.00  0.00     0.000 C
BRANCH  29  32
ATOM     32  C   UNL     1      31.381  18.874  -4.414  1.00  0.00     0.102 C
BRANCH  32  33
ATOM     33  S   UNL     1      31.273  20.109  -5.762  1.00  0.00    -0.156 SA
BRANCH  33  34
ATOM     34  C   UNL     1      31.017  21.645  -4.796  1.00  0.00     0.089 C
ATOM     35  G   UNL     1      32.318  22.252  -4.229  1.00  0.00     0.000 C
ENDBRANCH  33  34
ENDBRANCH  32  33
ENDBRANCH  29  32
ENDBRANCH  28  29
ENDBRANCH  27  28
ENDBRANCH  26  27
ENDBRANCH   1  26
BRANCH   6  36
ATOM     36  O   UNL     1      27.739  15.537  -9.351  1.00  0.00    -0.492 OA
BRANCH  36  37
ATOM     37  C   UNL     1      26.483  16.151  -9.738  1.00  0.00     0.245 C
BRANCH  37  38
ATOM     38  C   UNL     1      25.526  16.471  -8.567  1.00  0.00     0.126 C
BRANCH  38  39
ATOM     39  N   UNL     1      25.054  17.865  -8.512  1.00  0.00    -0.296 NA
ATOM     40  C   UNL     1      24.251  18.239  -9.674  1.00  0.00     0.085 C
ATOM     41  C   UNL     1      26.205  18.803  -8.473  1.00  0.00     0.066 C
ATOM     42  C   UNL     1      24.259  19.751  -9.580  1.00  0.00     0.017 C
ATOM     43  C   UNL     1      25.679  20.082  -9.142  1.00  0.00     0.021 C
ATOM     44  G   UNL     1      26.660  19.029  -7.015  1.00  0.00     0.000 C
ENDBRANCH  38  39
ENDBRANCH  37  38
ENDBRANCH  36  37
ENDBRANCH   6  36
TORSDOF 0
ENDMDL
MODEL 9
REMARK VINA RESULT:      -7.5      3.148      7.574
REMARK SMILES Cc1cnc2nc1-c1cccc(c1)COCC=C1COCc3cc(ccc3OCCN3CCC[C@H]3CSC1)N2
REMARK SMILES IDX 22 1 23 2 24 3 25 4 26 5 27 6 39 7 5 9 2 10 3 11 7 12 4 13
REMARK SMILES IDX 6 14 1 15 8 16 9 17 13 18 10 19 12 20 11 21 14 22 15 23
REMARK SMILES IDX 16 24 21 26 20 27 19 28 18 29 17 30 38 32 37 33 36 34 28 36
REMARK SMILES IDX 29 37 30 38 31 39 32 40 35 41 33 42 34 43
REMARK H PARENT 39 8
REMARK Flexibility Score:  100.800
ROOT
ATOM      1  C   UNL     1      29.077   9.682  -4.973  1.00  0.00     0.022 A
ATOM      2  C   UNL     1      30.172   9.562  -4.089  1.00  0.00     0.036 A
ATOM      3  C   UNL     1      30.916   8.381  -3.994  1.00  0.00     0.042 A
ATOM      4  C   UNL     1      30.489   7.272  -4.743  1.00  0.00     0.030 A
ATOM      5  C   UNL     1      29.419   7.367  -5.632  1.00  0.00     0.049 A
ATOM      6  C   UNL     1      28.758   8.583  -5.786  1.00  0.00     0.125 A
ENDROOT
BRANCH   3   7
ATOM      7  N   UNL     1      32.090   8.245  -3.245  1.00  0.00    -0.324 N
ATOM      8  H   UNL     1      32.522   7.332  -3.245  1.00  0.00     0.170 HD
BRANCH   7   9
ATOM      9  C   UNL     1      32.986   9.140  -2.667  1.00  0.00     0.227 A
ATOM     10  C   UNL     1      34.987  10.665  -1.610  1.00  0.00    -0.006 A
ATOM     11  C   UNL     1      34.773   9.349  -1.258  1.00  0.00     0.120 A
ATOM     12  C   UNL     1      34.038  11.201  -2.472  1.00  0.00     0.079 A
ATOM     13  N   UNL     1      33.784   8.585  -1.747  1.00  0.00    -0.221 NA
ATOM     14  N   UNL     1      33.072  10.425  -3.032  1.00  0.00    -0.212 NA
ATOM     15  C   UNL     1      36.167  11.387  -1.044  1.00  0.00     0.048 C
BRANCH  12  16
ATOM     16  C   UNL     1      33.964  12.630  -2.872  1.00  0.00     0.001 A
ATOM     17  C   UNL     1      34.539  13.661  -2.107  1.00  0.00     0.010 A
ATOM     18  C   UNL     1      33.241  13.016  -4.017  1.00  0.00     0.016 A
ATOM     19  C   UNL     1      34.462  15.000  -2.502  1.00  0.00     0.001 A
ATOM     20  C   UNL     1      33.108  14.364  -4.396  1.00  0.00    -0.022 A
ATOM     21  C   UNL     1      33.758  15.349  -3.648  1.00  0.00     0.006 A
BRANCH  20  22
ATOM     22  C   UNL     1      32.223  14.751  -5.550  1.00  0.00     0.196 C
BRANCH  22  23
ATOM     23  O   UNL     1      32.005  16.156  -5.648  1.00  0.00    -0.373 OA
BRANCH  23  24
ATOM     24  C   UNL     1      32.615  16.791  -6.776  1.00  0.00     0.188 C
ATOM     25  G   UNL     1      33.724  17.695  -6.324  1.00  0.00     0.000 C
ENDBRANCH  23  24
ENDBRANCH  22  23
ENDBRANCH  20  22
ENDBRANCH  12  16
ENDBRANCH   7   9
ENDBRANCH   3   7
BRANCH   1  26
ATOM     26  C   UNL     1      28.313  10.987  -5.054  1.00  0.00     0.200 C
BRANCH  26  27
ATOM     27  O   UNL     1      29.226  12.080  -5.026  1.00  0.00    -0.372 OA
BRANCH  27  28
ATOM     28  C   UNL     1      28.661  13.344  -5.347  1.00  0.00     0.192 C
BRANCH  28  29
ATOM     29  C   UNL     1      29.084  14.368  -4.316  1.00  0.00    -0.036 C
ATOM     30  C   UNL     1      29.722  13.936  -3.207  1.00  0.00     0.003 C
ATOM     31  G   UNL     1      30.421  14.756  -2.162  1.00  0.00     0.000 C
BRANCH  29  32
ATOM     32  C   UNL     1      28.811  15.825  -4.637  1.00  0.00     0.102 C
BRANCH  32  33
ATOM     33  S   UNL     1      28.216  16.032  -6.356  1.00  0.00    -0.156 SA
BRANCH  33  34
ATOM     34  C   UNL     1      26.714  17.046  -6.076  1.00  0.00     0.089 C
ATOM     35  G   UNL     1      26.588  18.254  -7.029  1.00  0.00     0.000 C
ENDBRANCH  33  34
ENDBRANCH  32  33
ENDBRANCH  29  32
ENDBRANCH  28  29
ENDBRANCH  27  28
ENDBRANCH  26  27
ENDBRANCH   1  26
BRANCH   6  36
ATOM     36  O   UNL     1      27.812   8.724  -6.766  1.00  0.00    -0.492 OA
BRANCH  36  37
ATOM     37  C   UNL     1      26.522   8.165  -6.408  1.00  0.00     0.245 C
BRANCH  37  38
ATOM     38  C   UNL     1      25.675   7.665  -7.600  1.00  0.00     0.126 C
BRANCH  38  39
ATOM     39  N   UNL     1      25.932   6.272  -8.004  1.00  0.00    -0.296 NA
ATOM     40  C   UNL     1      26.506   5.466  -6.930  1.00  0.00     0.085 C
ATOM     41  C   UNL     1      26.900   6.227  -9.131  1.00  0.00     0.066 C
ATOM     42  C   UNL     1      27.042   4.271  -7.694  1.00  0.00     0.017 C
ATOM     43  C   UNL     1      27.618   4.879  -8.965  1.00  0.00     0.021 C
ATOM     44  G   UNL     1      26.156   6.351 -10.478  1.00  0.00     0.000 C
ENDBRANCH  38  39
ENDBRANCH  37  38
ENDBRANCH  36  37
ENDBRANCH   6  36
TORSDOF 0
ENDMDL
