MODEL 1
REMARK VINA RESULT:      -8.6      0.000      0.000
REMARK SMILES N#C[C@@H]1CCN(C(=O)[C@@H]2NC(=O)c3c[nH]c4ncc(nc34)[C@@H]3C[C@H]3CCCC23CC3)C1
REMARK SMILES IDX 10 1 11 2 12 3 9 5 7 6 8 7 6 8 1 9 2 10 3 11 4 12 31 13 5 14
REMARK SMILES IDX 28 15 29 16 30 17 27 18 26 19 13 21 14 22 21 23 15 24 20 25
REMARK SMILES IDX 16 26 19 27 17 28 18 29 22 31 23 32 24 33 25 34
REMARK H PARENT 10 4 15 30
REMARK Flexibility Score:   57.900
ROOT
ATOM      1  N   UNL     1      32.545  15.035  -4.336  1.00  0.00    -0.340 N
ATOM      2  C   UNL     1      32.524  14.541  -3.055  1.00  0.00     0.255 C
ATOM      3  O   UNL     1      31.724  14.911  -2.202  1.00  0.00    -0.269 OA
ATOM      4  H   UNL     1      33.269  14.688  -4.962  1.00  0.00     0.164 HD
ENDROOT
BRANCH   1   5
ATOM      5  C   UNL     1      31.689  16.100  -4.810  1.00  0.00     0.178 C
BRANCH   5   6
ATOM      6  C   UNL     1      32.485  16.990  -5.811  1.00  0.00     0.245 C
ATOM      7  O   UNL     1      33.129  16.500  -6.743  1.00  0.00    -0.272 OA
BRANCH   6   8
ATOM      8  N   UNL     1      32.475  18.358  -5.610  1.00  0.00    -0.340 N
ATOM      9  N   UNL     1      30.065  21.546  -6.367  1.00  0.00    -0.198 NA
ATOM     10  C   UNL     1      30.927  21.115  -5.721  1.00  0.00     0.067 C
ATOM     11  C   UNL     1      32.017  20.576  -4.893  1.00  0.00     0.114 C
ATOM     12  C   UNL     1      33.342  20.545  -5.656  1.00  0.00     0.042 C
ATOM     13  C   UNL     1      31.776  19.102  -4.568  1.00  0.00     0.138 C
ATOM     14  C   UNL     1      33.281  19.239  -6.437  1.00  0.00     0.121 C
ENDBRANCH   6   8
ENDBRANCH   5   6
BRANCH   5  15
ATOM     15  C   UNL     1      30.418  15.492  -5.446  1.00  0.00    -0.000 C
ATOM     16  C   UNL     1      29.101  16.210  -5.163  1.00  0.00     0.010 C
ATOM     17  C   UNL     1      29.725  16.324  -6.517  1.00  0.00     0.010 C
BRANCH  15  18
ATOM     18  C   UNL     1      30.430  13.969  -5.682  1.00  0.00     0.010 C
BRANCH  18  19
ATOM     19  C   UNL     1      29.533  13.169  -4.724  1.00  0.00     0.001 C
ATOM     20  G   UNL     1      28.175  12.769  -5.330  1.00  0.00     0.000 C
ENDBRANCH  18  19
ENDBRANCH  15  18
ENDBRANCH   5  15
ENDBRANCH   1   5
BRANCH   2  21
ATOM     21  C   UNL     1      33.556  13.542  -2.800  1.00  0.00     0.085 A
ATOM     22  C   UNL     1      34.895  13.762  -2.503  1.00  0.00     0.100 A
ATOM     23  C   UNL     1      33.396  12.135  -2.823  1.00  0.00     0.120 A
ATOM     24  N   UNL     1      35.521  12.539  -2.367  1.00  0.00    -0.344 N
ATOM     25  N   UNL     1      32.275  11.416  -3.058  1.00  0.00    -0.247 NA
ATOM     26  C   UNL     1      34.615  11.533  -2.567  1.00  0.00     0.156 A
ATOM     27  C   UNL     1      32.441  10.074  -3.047  1.00  0.00     0.063 A
ATOM     28  N   UNL     1      34.845  10.204  -2.529  1.00  0.00    -0.235 NA
ATOM     29  C   UNL     1      33.695   9.509  -2.786  1.00  0.00     0.137 A
ATOM     30  H   UNL     1      36.497  12.387  -2.160  1.00  0.00     0.168 HD
BRANCH  27  31
ATOM     31  C   UNL     1      31.189   9.270  -3.290  1.00  0.00     0.043 C
ATOM     32  C   UNL     1      31.147   7.899  -3.913  1.00  0.00     0.014 C
ATOM     33  C   UNL     1      30.808   9.095  -4.759  1.00  0.00    -0.001 C
BRANCH  33  34
ATOM     34  C   UNL     1      29.419   9.456  -5.193  1.00  0.00     0.004 C
ATOM     35  G   UNL     1      28.795   8.373  -6.093  1.00  0.00     0.000 C
ENDBRANCH  33  34
ENDBRANCH  27  31
ENDBRANCH   2  21
TORSDOF 2
ENDMDL
MODEL 2
REMARK VINA RESULT:      -8.5      0.742      1.517
REMARK SMILES N#C[C@@H]1CCN(C(=O)[C@@H]2NC(=O)c3c[nH]c4ncc(nc34)[C@@H]3C[C@H]3CCCC23CC3)C1
REMARK SMILES IDX 10 1 11 2 12 3 9 5 7 6 8 7 6 8 1 9 2 10 3 11 4 12 31 13 5 14
REMARK SMILES IDX 28 15 29 16 30 17 27 18 26 19 13 21 14 22 21 23 15 24 20 25
REMARK SMILES IDX 16 26 19 27 17 28 18 29 22 31 23 32 24 33 25 34
REMARK H PARENT 10 4 15 30
REMARK Flexibility Score:   57.900
ROOT
ATOM      1  N   UNL     1      32.284  14.385  -4.074  1.00  0.00    -0.340 N
ATOM      2  C   UNL     1      32.706  14.253  -2.774  1.00  0.00     0.255 C
ATOM      3  O   UNL     1      32.294  14.953  -1.855  1.00  0.00    -0.269 OA
ATOM      4  H   UNL     1      32.711  13.778  -4.771  1.00  0.00     0.164 HD
ENDROOT
BRANCH   1   5
ATOM      5  C   UNL     1      31.370  15.409  -4.532  1.00  0.00     0.178 C
BRANCH   5   6
ATOM      6  C   UNL     1      32.089  16.303  -5.585  1.00  0.00     0.245 C
ATOM      7  O   UNL     1      32.661  15.817  -6.565  1.00  0.00    -0.272 OA
BRANCH   6   8
ATOM      8  N   UNL     1      32.096  17.670  -5.377  1.00  0.00    -0.340 N
ATOM      9  N   UNL     1      29.668  20.873  -6.002  1.00  0.00    -0.198 NA
ATOM     10  C   UNL     1      30.558  20.435  -5.401  1.00  0.00     0.067 C
ATOM     11  C   UNL     1      31.684  19.886  -4.629  1.00  0.00     0.114 C
ATOM     12  C   UNL     1      32.971  19.853  -5.455  1.00  0.00     0.042 C
ATOM     13  C   UNL     1      31.452  18.412  -4.300  1.00  0.00     0.138 C
ATOM     14  C   UNL     1      32.865  18.551  -6.238  1.00  0.00     0.121 C
ENDBRANCH   6   8
ENDBRANCH   5   6
BRANCH   5  15
ATOM     15  C   UNL     1      30.096  14.743  -5.097  1.00  0.00    -0.000 C
ATOM     16  C   UNL     1      30.195  13.259  -5.442  1.00  0.00     0.010 C
ATOM     17  C   UNL     1      29.435  13.682  -4.226  1.00  0.00     0.010 C
BRANCH  15  18
ATOM     18  C   UNL     1      29.137  15.655  -5.887  1.00  0.00     0.010 C
BRANCH  18  19
ATOM     19  C   UNL     1      28.146  16.444  -5.016  1.00  0.00     0.001 C
ATOM     20  G   UNL     1      27.757  17.815  -5.601  1.00  0.00     0.000 C
ENDBRANCH  18  19
ENDBRANCH  15  18
ENDBRANCH   5  15
ENDBRANCH   1   5
BRANCH   2  21
ATOM     21  C   UNL     1      33.707  13.207  -2.591  1.00  0.00     0.085 A
ATOM     22  C   UNL     1      35.057  13.365  -2.306  1.00  0.00     0.100 A
ATOM     23  C   UNL     1      33.498  11.810  -2.688  1.00  0.00     0.120 A
ATOM     24  N   UNL     1      35.642  12.116  -2.247  1.00  0.00    -0.344 N
ATOM     25  N   UNL     1      32.349  11.143  -2.943  1.00  0.00    -0.247 NA
ATOM     26  C   UNL     1      34.699  11.154  -2.486  1.00  0.00     0.156 A
ATOM     27  C   UNL     1      32.468   9.798  -3.007  1.00  0.00     0.063 A
ATOM     28  N   UNL     1      34.883   9.818  -2.524  1.00  0.00    -0.235 NA
ATOM     29  C   UNL     1      33.705   9.177  -2.798  1.00  0.00     0.137 A
ATOM     30  H   UNL     1      36.616  11.920  -2.065  1.00  0.00     0.168 HD
BRANCH  27  31
ATOM     31  C   UNL     1      31.186   9.051  -3.272  1.00  0.00     0.043 C
ATOM     32  C   UNL     1      31.077   7.763  -4.046  1.00  0.00     0.014 C
ATOM     33  C   UNL     1      30.724   9.056  -4.728  1.00  0.00    -0.001 C
BRANCH  33  34
ATOM     34  C   UNL     1      29.323   9.491  -5.040  1.00  0.00     0.004 C
ATOM     35  G   UNL     1      28.823   8.913  -6.377  1.00  0.00     0.000 C
ENDBRANCH  33  34
ENDBRANCH  27  31
ENDBRANCH   2  21
TORSDOF 2
ENDMDL
MODEL 3
REMARK VINA RESULT:      -8.4      1.358      2.027
REMARK SMILES N#C[C@@H]1CCN(C(=O)[C@@H]2NC(=O)c3c[nH]c4ncc(nc34)[C@@H]3C[C@H]3CCCC23CC3)C1
REMARK SMILES IDX 10 1 11 2 12 3 9 5 7 6 8 7 6 8 1 9 2 10 3 11 4 12 31 13 5 14
REMARK SMILES IDX 28 15 29 16 30 17 27 18 26 19 13 21 14 22 21 23 15 24 20 25
REMARK SMILES IDX 16 26 19 27 17 28 18 29 22 31 23 32 24 33 25 34
REMARK H PARENT 10 4 15 30
REMARK Flexibility Score:   57.900
ROOT
ATOM      1  N   UNL     1      32.036  13.845  -3.593  1.00  0.00    -0.340 N
ATOM      2  C   UNL     1      33.250  14.186  -3.049  1.00  0.00     0.255 C
ATOM      3  O   UNL     1      33.627  15.345  -2.913  1.00  0.00    -0.269 OA
ATOM      4  H   UNL     1      31.829  12.853  -3.695  1.00  0.00     0.164 HD
ENDROOT
BRANCH   1   5
ATOM      5  C   UNL     1      31.095  14.797  -4.142  1.00  0.00     0.178 C
BRANCH   5   6
ATOM      6  C   UNL     1      31.753  15.531  -5.347  1.00  0.00     0.245 C
ATOM      7  O   UNL     1      32.377  14.916  -6.218  1.00  0.00    -0.272 OA
BRANCH   6   8
ATOM      8  N   UNL     1      31.644  16.908  -5.405  1.00  0.00    -0.340 N
ATOM      9  N   UNL     1      34.075  20.159  -5.670  1.00  0.00    -0.198 NA
ATOM     10  C   UNL     1      33.010  19.730  -5.836  1.00  0.00     0.067 C
ATOM     11  C   UNL     1      31.658  19.192  -6.056  1.00  0.00     0.114 C
ATOM     12  C   UNL     1      30.893  19.036  -4.740  1.00  0.00     0.042 C
ATOM     13  C   UNL     1      31.720  17.760  -6.586  1.00  0.00     0.138 C
ATOM     14  C   UNL     1      31.352  17.683  -4.212  1.00  0.00     0.121 C
ENDBRANCH   6   8
ENDBRANCH   5   6
BRANCH   5  15
ATOM     15  C   UNL     1      29.795  14.061  -4.538  1.00  0.00    -0.000 C
ATOM     16  C   UNL     1      29.957  12.753  -5.308  1.00  0.00     0.010 C
ATOM     17  C   UNL     1      29.541  12.715  -3.873  1.00  0.00     0.010 C
BRANCH  15  18
ATOM     18  C   UNL     1      28.551  14.941  -4.768  1.00  0.00     0.010 C
BRANCH  18  19
ATOM     19  C   UNL     1      28.344  15.382  -6.226  1.00  0.00     0.001 C
ATOM     20  G   UNL     1      27.079  14.796  -6.881  1.00  0.00     0.000 C
ENDBRANCH  18  19
ENDBRANCH  15  18
ENDBRANCH   5  15
ENDBRANCH   1   5
BRANCH   2  21
ATOM     21  C   UNL     1      34.058  13.034  -2.662  1.00  0.00     0.085 A
ATOM     22  C   UNL     1      35.375  13.031  -2.221  1.00  0.00     0.100 A
ATOM     23  C   UNL     1      33.657  11.677  -2.677  1.00  0.00     0.120 A
ATOM     24  N   UNL     1      35.758  11.725  -1.993  1.00  0.00    -0.344 N
ATOM     25  N   UNL     1      32.459  11.153  -3.024  1.00  0.00    -0.247 NA
ATOM     26  C   UNL     1      34.717  10.883  -2.275  1.00  0.00     0.156 A
ATOM     27  C   UNL     1      32.384   9.804  -2.970  1.00  0.00     0.063 A
ATOM     28  N   UNL     1      34.705   9.537  -2.188  1.00  0.00    -0.235 NA
ATOM     29  C   UNL     1      33.484   9.042  -2.559  1.00  0.00     0.137 A
ATOM     30  H   UNL     1      36.665  11.414  -1.675  1.00  0.00     0.168 HD
BRANCH  27  31
ATOM     31  C   UNL     1      31.045   9.219  -3.337  1.00  0.00     0.043 C
ATOM     32  C   UNL     1      30.811   7.797  -3.776  1.00  0.00     0.014 C
ATOM     33  C   UNL     1      30.871   8.881  -4.817  1.00  0.00    -0.001 C
BRANCH  33  34
ATOM     34  C   UNL     1      29.676   9.419  -5.545  1.00  0.00     0.004 C
ATOM     35  G   UNL     1      29.177   8.448  -6.633  1.00  0.00     0.000 C
ENDBRANCH  33  34
ENDBRANCH  27  31
ENDBRANCH   2  21
TORSDOF 2
ENDMDL
MODEL 4
REMARK VINA RESULT:      -8.2      2.122      4.836
REMARK SMILES N#C[C@@H]1CCN(C(=O)[C@@H]2NC(=O)c3c[nH]c4ncc(nc34)[C@@H]3C[C@H]3CCCC23CC3)C1
REMARK SMILES IDX 10 1 11 2 12 3 9 5 7 6 8 7 6 8 1 9 2 10 3 11 4 12 31 13 5 14
REMARK SMILES IDX 28 15 29 16 30 17 27 18 26 19 13 21 14 22 21 23 15 24 20 25
REMARK SMILES IDX 16 26 19 27 17 28 18 29 22 31 23 32 24 33 25 34
REMARK H PARENT 10 4 15 30
REMARK Flexibility Score:   57.900
ROOT
ATOM      1  N   UNL     1      30.806  14.428  -4.750  1.00  0.00    -0.340 N
ATOM      2  C   UNL     1      29.795  14.603  -5.663  1.00  0.00     0.255 C
ATOM      3  O   UNL     1      29.768  15.525  -6.471  1.00  0.00    -0.269 OA
ATOM      4  H   UNL     1      30.721  13.651  -4.098  1.00  0.00     0.164 HD
ENDROOT
BRANCH   1   5
ATOM      5  C   UNL     1      31.912  15.344  -4.576  1.00  0.00     0.178 C
BRANCH   5   6
ATOM      6  C   UNL     1      31.370  16.708  -4.054  1.00  0.00     0.245 C
ATOM      7  O   UNL     1      30.752  16.794  -2.988  1.00  0.00    -0.272 OA
BRANCH   6   8
ATOM      8  N   UNL     1      31.574  17.829  -4.837  1.00  0.00    -0.340 N
ATOM      9  N   UNL     1      34.103  21.010  -5.026  1.00  0.00    -0.198 NA
ATOM     10  C   UNL     1      33.359  20.329  -5.598  1.00  0.00     0.067 C
ATOM     11  C   UNL     1      32.421  19.466  -6.335  1.00  0.00     0.114 C
ATOM     12  C   UNL     1      30.967  19.790  -5.988  1.00  0.00     0.042 C
ATOM     13  C   UNL     1      32.561  18.009  -5.896  1.00  0.00     0.138 C
ATOM     14  C   UNL     1      30.712  18.991  -4.716  1.00  0.00     0.121 C
ENDBRANCH   6   8
ENDBRANCH   5   6
BRANCH   5  15
ATOM     15  C   UNL     1      32.950  14.718  -3.618  1.00  0.00    -0.000 C
ATOM     16  C   UNL     1      32.424  13.699  -2.610  1.00  0.00     0.010 C
ATOM     17  C   UNL     1      33.222  13.229  -3.783  1.00  0.00     0.010 C
BRANCH  15  18
ATOM     18  C   UNL     1      34.172  15.588  -3.266  1.00  0.00     0.010 C
BRANCH  18  19
ATOM     19  C   UNL     1      35.416  14.795  -2.834  1.00  0.00     0.001 C
ATOM     20  G   UNL     1      36.492  15.652  -2.141  1.00  0.00     0.000 C
ENDBRANCH  18  19
ENDBRANCH  15  18
ENDBRANCH   5  15
ENDBRANCH   1   5
BRANCH   2  21
ATOM     21  C   UNL     1      28.745  13.594  -5.568  1.00  0.00     0.085 A
ATOM     22  C   UNL     1      27.378  13.774  -5.734  1.00  0.00     0.100 A
ATOM     23  C   UNL     1      28.917  12.221  -5.269  1.00  0.00     0.120 A
ATOM     24  N   UNL     1      26.748  12.563  -5.528  1.00  0.00    -0.344 N
ATOM     25  N   UNL     1      30.064  11.544  -5.029  1.00  0.00    -0.247 NA
ATOM     26  C   UNL     1      27.679  11.603  -5.236  1.00  0.00     0.156 A
ATOM     27  C   UNL     1      29.907  10.234  -4.736  1.00  0.00     0.063 A
ATOM     28  N   UNL     1      27.456  10.301  -4.962  1.00  0.00    -0.235 NA
ATOM     29  C   UNL     1      28.634   9.653  -4.711  1.00  0.00     0.137 A
ATOM     30  H   UNL     1      25.755  12.390  -5.574  1.00  0.00     0.168 HD
BRANCH  27  31
ATOM     31  C   UNL     1      31.185   9.474  -4.488  1.00  0.00     0.043 C
ATOM     32  C   UNL     1      31.285   8.161  -3.756  1.00  0.00     0.014 C
ATOM     33  C   UNL     1      31.638   9.430  -3.029  1.00  0.00    -0.001 C
BRANCH  33  34
ATOM     34  C   UNL     1      33.039   9.849  -2.695  1.00  0.00     0.004 C
ATOM     35  G   UNL     1      33.719   8.868  -1.722  1.00  0.00     0.000 C
ENDBRANCH  33  34
ENDBRANCH  27  31
ENDBRANCH   2  21
TORSDOF 2
ENDMDL
MODEL 5
REMARK VINA RESULT:      -8.1      0.994      1.077
REMARK SMILES N#C[C@@H]1CCN(C(=O)[C@@H]2NC(=O)c3c[nH]c4ncc(nc34)[C@@H]3C[C@H]3CCCC23CC3)C1
REMARK SMILES IDX 10 1 11 2 12 3 9 5 7 6 8 7 6 8 1 9 2 10 3 11 4 12 31 13 5 14
REMARK SMILES IDX 28 15 29 16 30 17 27 18 26 19 13 21 14 22 21 23 15 24 20 25
REMARK SMILES IDX 16 26 19 27 17 28 18 29 22 31 23 32 24 33 25 34
REMARK H PARENT 10 4 15 30
REMARK Flexibility Score:   57.900
ROOT
ATOM      1  N   UNL     1      32.134  14.005  -3.931  1.00  0.00    -0.340 N
ATOM      2  C   UNL     1      33.153  14.285  -3.053  1.00  0.00     0.255 C
ATOM      3  O   UNL     1      33.366  15.404  -2.601  1.00  0.00    -0.269 OA
ATOM      4  H   UNL     1      32.060  13.051  -4.277  1.00  0.00     0.164 HD
ENDROOT
BRANCH   1   5
ATOM      5  C   UNL     1      31.246  15.001  -4.489  1.00  0.00     0.178 C
BRANCH   5   6
ATOM      6  C   UNL     1      32.008  15.816  -5.576  1.00  0.00     0.245 C
ATOM      7  O   UNL     1      32.646  15.259  -6.475  1.00  0.00    -0.272 OA
BRANCH   6   8
ATOM      8  N   UNL     1      31.976  17.196  -5.493  1.00  0.00    -0.340 N
ATOM      9  N   UNL     1      29.269  20.217  -5.788  1.00  0.00    -0.198 NA
ATOM     10  C   UNL     1      30.301  19.878  -5.382  1.00  0.00     0.067 C
ATOM     11  C   UNL     1      31.609  19.455  -4.858  1.00  0.00     0.114 C
ATOM     12  C   UNL     1      32.666  19.396  -5.962  1.00  0.00     0.042 C
ATOM     13  C   UNL     1      31.555  18.011  -4.359  1.00  0.00     0.138 C
ATOM     14  C   UNL     1      32.464  18.020  -6.584  1.00  0.00     0.121 C
ENDBRANCH   6   8
ENDBRANCH   5   6
BRANCH   5  15
ATOM     15  C   UNL     1      29.985  14.307  -5.051  1.00  0.00    -0.000 C
ATOM     16  C   UNL     1      28.652  15.012  -4.813  1.00  0.00     0.010 C
ATOM     17  C   UNL     1      29.256  15.022  -6.181  1.00  0.00     0.010 C
BRANCH  15  18
ATOM     18  C   UNL     1      30.035  12.770  -5.152  1.00  0.00     0.010 C
BRANCH  18  19
ATOM     19  C   UNL     1      28.898  12.045  -4.413  1.00  0.00     0.001 C
ATOM     20  G   UNL     1      27.727  11.632  -5.325  1.00  0.00     0.000 C
ENDBRANCH  18  19
ENDBRANCH  15  18
ENDBRANCH   5  15
ENDBRANCH   1   5
BRANCH   2  21
ATOM     21  C   UNL     1      33.969  13.122  -2.721  1.00  0.00     0.085 A
ATOM     22  C   UNL     1      35.293  13.106  -2.302  1.00  0.00     0.100 A
ATOM     23  C   UNL     1      33.570  11.764  -2.777  1.00  0.00     0.120 A
ATOM     24  N   UNL     1      35.682  11.793  -2.127  1.00  0.00    -0.344 N
ATOM     25  N   UNL     1      32.367  11.250  -3.122  1.00  0.00    -0.247 NA
ATOM     26  C   UNL     1      34.637  10.960  -2.421  1.00  0.00     0.156 A
ATOM     27  C   UNL     1      32.295   9.901  -3.114  1.00  0.00     0.063 A
ATOM     28  N   UNL     1      34.629   9.611  -2.382  1.00  0.00    -0.235 NA
ATOM     29  C   UNL     1      33.403   9.127  -2.750  1.00  0.00     0.137 A
ATOM     30  H   UNL     1      36.594  11.474  -1.836  1.00  0.00     0.168 HD
BRANCH  27  31
ATOM     31  C   UNL     1      30.950   9.326  -3.480  1.00  0.00     0.043 C
ATOM     32  C   UNL     1      30.635   7.857  -3.584  1.00  0.00     0.014 C
ATOM     33  C   UNL     1      30.890   8.639  -4.843  1.00  0.00    -0.001 C
BRANCH  33  34
ATOM     34  C   UNL     1      29.821   9.050  -5.812  1.00  0.00     0.004 C
ATOM     35  G   UNL     1      28.862   7.891  -6.140  1.00  0.00     0.000 C
ENDBRANCH  33  34
ENDBRANCH  27  31
ENDBRANCH   2  21
TORSDOF 2
ENDMDL
MODEL 6
REMARK VINA RESULT:      -8.1      2.922      5.569
REMARK SMILES N#C[C@@H]1CCN(C(=O)[C@@H]2NC(=O)c3c[nH]c4ncc(nc34)[C@@H]3C[C@H]3CCCC23CC3)C1
REMARK SMILES IDX 10 1 11 2 12 3 9 5 7 6 8 7 6 8 1 9 2 10 3 11 4 12 31 13 5 14
REMARK SMILES IDX 28 15 29 16 30 17 27 18 26 19 13 21 14 22 21 23 15 24 20 25
REMARK SMILES IDX 16 26 19 27 17 28 18 29 22 31 23 32 24 33 25 34
REMARK H PARENT 10 4 15 30
REMARK Flexibility Score:   57.900
ROOT
ATOM      1  N   UNL     1      31.006  12.200  -4.487  1.00  0.00    -0.340 N
ATOM      2  C   UNL     1      30.561  10.942  -4.816  1.00  0.00     0.255 C
ATOM      3  O   UNL     1      29.722  10.729  -5.684  1.00  0.00    -0.269 OA
ATOM      4  H   UNL     1      31.681  12.276  -3.728  1.00  0.00     0.164 HD
ENDROOT
BRANCH   1   5
ATOM      5  C   UNL     1      30.486  13.421  -5.061  1.00  0.00     0.178 C
BRANCH   5   6
ATOM      6  C   UNL     1      29.077  13.709  -4.464  1.00  0.00     0.245 C
ATOM      7  O   UNL     1      28.847  13.584  -3.257  1.00  0.00    -0.272 OA
BRANCH   6   8
ATOM      8  N   UNL     1      28.070  14.084  -5.334  1.00  0.00    -0.340 N
ATOM      9  N   UNL     1      27.100  17.236  -7.716  1.00  0.00    -0.198 NA
ATOM     10  C   UNL     1      26.954  16.106  -7.498  1.00  0.00     0.067 C
ATOM     11  C   UNL     1      26.768  14.670  -7.232  1.00  0.00     0.114 C
ATOM     12  C   UNL     1      25.850  14.434  -6.032  1.00  0.00     0.042 C
ATOM     13  C   UNL     1      28.080  14.023  -6.791  1.00  0.00     0.138 C
ATOM     14  C   UNL     1      26.785  14.540  -4.834  1.00  0.00     0.121 C
ENDBRANCH   6   8
ENDBRANCH   5   6
BRANCH   5  15
ATOM     15  C   UNL     1      31.482  14.574  -4.801  1.00  0.00    -0.000 C
ATOM     16  C   UNL     1      32.281  15.073  -6.003  1.00  0.00     0.010 C
ATOM     17  C   UNL     1      31.168  15.910  -5.460  1.00  0.00     0.010 C
BRANCH  15  18
ATOM     18  C   UNL     1      32.091  14.650  -3.387  1.00  0.00     0.010 C
BRANCH  18  19
ATOM     19  C   UNL     1      31.486  15.743  -2.491  1.00  0.00     0.001 C
ATOM     20  G   UNL     1      31.162  15.268  -1.062  1.00  0.00     0.000 C
ENDBRANCH  18  19
ENDBRANCH  15  18
ENDBRANCH   5  15
ENDBRANCH   1   5
BRANCH   2  21
ATOM     21  C   UNL     1      31.173   9.883  -4.020  1.00  0.00     0.085 A
ATOM     22  C   UNL     1      30.664   8.618  -3.757  1.00  0.00     0.100 A
ATOM     23  C   UNL     1      32.413   9.946  -3.339  1.00  0.00     0.120 A
ATOM     24  N   UNL     1      31.552   7.949  -2.938  1.00  0.00    -0.344 N
ATOM     25  N   UNL     1      33.300  10.966  -3.289  1.00  0.00    -0.247 NA
ATOM     26  C   UNL     1      32.626   8.754  -2.669  1.00  0.00     0.156 A
ATOM     27  C   UNL     1      34.390  10.742  -2.523  1.00  0.00     0.063 A
ATOM     28  N   UNL     1      33.695   8.463  -1.899  1.00  0.00    -0.235 NA
ATOM     29  C   UNL     1      34.562   9.521  -1.860  1.00  0.00     0.137 A
ATOM     30  H   UNL     1      31.443   7.013  -2.576  1.00  0.00     0.168 HD
BRANCH  27  31
ATOM     31  C   UNL     1      35.389  11.870  -2.481  1.00  0.00     0.043 C
ATOM     32  C   UNL     1      35.881  12.547  -1.228  1.00  0.00     0.014 C
ATOM     33  C   UNL     1      34.820  13.222  -2.053  1.00  0.00    -0.001 C
BRANCH  33  34
ATOM     34  C   UNL     1      35.064  14.417  -2.926  1.00  0.00     0.004 C
ATOM     35  G   UNL     1      36.102  15.377  -2.316  1.00  0.00     0.000 C
ENDBRANCH  33  34
ENDBRANCH  27  31
ENDBRANCH   2  21
TORSDOF 2
ENDMDL
MODEL 7
REMARK VINA RESULT:      -8.1      1.354      1.879
REMARK SMILES N#C[C@@H]1CCN(C(=O)[C@@H]2NC(=O)c3c[nH]c4ncc(nc34)[C@@H]3C[C@H]3CCCC23CC3)C1
REMARK SMILES IDX 10 1 11 2 12 3 9 5 7 6 8 7 6 8 1 9 2 10 3 11 4 12 31 13 5 14
REMARK SMILES IDX 28 15 29 16 30 17 27 18 26 19 13 21 14 22 21 23 15 24 20 25
REMARK SMILES IDX 16 26 19 27 17 28 18 29 22 31 23 32 24 33 25 34
REMARK H PARENT 10 4 15 30
REMARK Flexibility Score:   57.900
ROOT
ATOM      1  N   UNL     1      32.093  13.582  -3.511  1.00  0.00    -0.340 N
ATOM      2  C   UNL     1      33.320  13.903  -2.984  1.00  0.00     0.255 C
ATOM      3  O   UNL     1      33.737  15.053  -2.896  1.00  0.00    -0.269 OA
ATOM      4  H   UNL     1      31.852  12.594  -3.572  1.00  0.00     0.164 HD
ENDROOT
BRANCH   1   5
ATOM      5  C   UNL     1      31.184  14.542  -4.097  1.00  0.00     0.178 C
BRANCH   5   6
ATOM      6  C   UNL     1      31.852  15.184  -5.348  1.00  0.00     0.245 C
ATOM      7  O   UNL     1      32.333  14.493  -6.252  1.00  0.00    -0.272 OA
BRANCH   6   8
ATOM      8  N   UNL     1      31.920  16.564  -5.410  1.00  0.00    -0.340 N
ATOM      9  N   UNL     1      29.395  19.752  -5.498  1.00  0.00    -0.198 NA
ATOM     10  C   UNL     1      30.466  19.370  -5.266  1.00  0.00     0.067 C
ATOM     11  C   UNL     1      31.825  18.894  -4.963  1.00  0.00     0.114 C
ATOM     12  C   UNL     1      32.632  18.647  -6.239  1.00  0.00     0.042 C
ATOM     13  C   UNL     1      31.786  17.513  -4.311  1.00  0.00     0.138 C
ATOM     14  C   UNL     1      32.227  17.240  -6.657  1.00  0.00     0.121 C
ENDBRANCH   6   8
ENDBRANCH   5   6
BRANCH   5  15
ATOM     15  C   UNL     1      29.849  13.841  -4.437  1.00  0.00    -0.000 C
ATOM     16  C   UNL     1      29.940  12.558  -5.259  1.00  0.00     0.010 C
ATOM     17  C   UNL     1      29.612  12.477  -3.803  1.00  0.00     0.010 C
BRANCH  15  18
ATOM     18  C   UNL     1      28.609  14.748  -4.560  1.00  0.00     0.010 C
BRANCH  18  19
ATOM     19  C   UNL     1      27.338  14.028  -5.041  1.00  0.00     0.001 C
ATOM     20  G   UNL     1      26.042  14.824  -4.801  1.00  0.00     0.000 C
ENDBRANCH  18  19
ENDBRANCH  15  18
ENDBRANCH   5  15
ENDBRANCH   1   5
BRANCH   2  21
ATOM     21  C   UNL     1      34.090  12.741  -2.552  1.00  0.00     0.085 A
ATOM     22  C   UNL     1      35.384  12.720  -2.050  1.00  0.00     0.100 A
ATOM     23  C   UNL     1      33.667  11.390  -2.575  1.00  0.00     0.120 A
ATOM     24  N   UNL     1      35.734  11.409  -1.795  1.00  0.00    -0.344 N
ATOM     25  N   UNL     1      32.477  10.883  -2.974  1.00  0.00    -0.247 NA
ATOM     26  C   UNL     1      34.693  10.583  -2.119  1.00  0.00     0.156 A
ATOM     27  C   UNL     1      32.377   9.537  -2.913  1.00  0.00     0.063 A
ATOM     28  N   UNL     1      34.654   9.238  -2.023  1.00  0.00    -0.235 NA
ATOM     29  C   UNL     1      33.444   8.760  -2.447  1.00  0.00     0.137 A
ATOM     30  H   UNL     1      36.620  11.086  -1.433  1.00  0.00     0.168 HD
BRANCH  27  31
ATOM     31  C   UNL     1      31.046   8.971  -3.338  1.00  0.00     0.043 C
ATOM     32  C   UNL     1      30.830   7.588  -3.895  1.00  0.00     0.014 C
ATOM     33  C   UNL     1      30.886   8.756  -4.842  1.00  0.00    -0.001 C
BRANCH  33  34
ATOM     34  C   UNL     1      29.690   9.341  -5.532  1.00  0.00     0.004 C
ATOM     35  G   UNL     1      28.844   8.263  -6.235  1.00  0.00     0.000 C
ENDBRANCH  33  34
ENDBRANCH  27  31
ENDBRANCH   2  21
TORSDOF 2
ENDMDL
MODEL 8
REMARK VINA RESULT:      -8.0      1.328      1.588
REMARK SMILES N#C[C@@H]1CCN(C(=O)[C@@H]2NC(=O)c3c[nH]c4ncc(nc34)[C@@H]3C[C@H]3CCCC23CC3)C1
REMARK SMILES IDX 10 1 11 2 12 3 9 5 7 6 8 7 6 8 1 9 2 10 3 11 4 12 31 13 5 14
REMARK SMILES IDX 28 15 29 16 30 17 27 18 26 19 13 21 14 22 21 23 15 24 20 25
REMARK SMILES IDX 16 26 19 27 17 28 18 29 22 31 23 32 24 33 25 34
REMARK H PARENT 10 4 15 30
REMARK Flexibility Score:   57.900
ROOT
ATOM      1  N   UNL     1      32.306  13.775  -3.637  1.00  0.00    -0.340 N
ATOM      2  C   UNL     1      33.504  14.048  -3.024  1.00  0.00     0.255 C
ATOM      3  O   UNL     1      33.937  15.184  -2.863  1.00  0.00    -0.269 OA
ATOM      4  H   UNL     1      32.049  12.797  -3.753  1.00  0.00     0.164 HD
ENDROOT
BRANCH   1   5
ATOM      5  C   UNL     1      31.451  14.778  -4.234  1.00  0.00     0.178 C
BRANCH   5   6
ATOM      6  C   UNL     1      32.119  15.312  -5.535  1.00  0.00     0.245 C
ATOM      7  O   UNL     1      32.547  14.546  -6.405  1.00  0.00    -0.272 OA
BRANCH   6   8
ATOM      8  N   UNL     1      32.250  16.680  -5.682  1.00  0.00    -0.340 N
ATOM      9  N   UNL     1      29.906  19.911  -6.464  1.00  0.00    -0.198 NA
ATOM     10  C   UNL     1      30.901  19.523  -6.012  1.00  0.00     0.067 C
ATOM     11  C   UNL     1      32.163  19.040  -5.430  1.00  0.00     0.114 C
ATOM     12  C   UNL     1      33.179  18.675  -6.514  1.00  0.00     0.042 C
ATOM     13  C   UNL     1      31.955  17.715  -4.698  1.00  0.00     0.138 C
ATOM     14  C   UNL     1      32.804  17.250  -6.898  1.00  0.00     0.121 C
ENDBRANCH   6   8
ENDBRANCH   5   6
BRANCH   5  15
ATOM     15  C   UNL     1      30.054  14.171  -4.495  1.00  0.00    -0.000 C
ATOM     16  C   UNL     1      29.348  13.538  -3.299  1.00  0.00     0.010 C
ATOM     17  C   UNL     1      28.874  14.856  -3.820  1.00  0.00     0.010 C
BRANCH  15  18
ATOM     18  C   UNL     1      29.795  13.632  -5.916  1.00  0.00     0.010 C
BRANCH  18  19
ATOM     19  C   UNL     1      28.575  14.250  -6.618  1.00  0.00     0.001 C
ATOM     20  G   UNL     1      27.428  13.253  -6.867  1.00  0.00     0.000 C
ENDBRANCH  18  19
ENDBRANCH  15  18
ENDBRANCH   5  15
ENDBRANCH   1   5
BRANCH   2  21
ATOM     21  C   UNL     1      34.224  12.853  -2.597  1.00  0.00     0.085 A
ATOM     22  C   UNL     1      35.519  12.774  -2.100  1.00  0.00     0.100 A
ATOM     23  C   UNL     1      33.742  11.522  -2.620  1.00  0.00     0.120 A
ATOM     24  N   UNL     1      35.812  11.449  -1.849  1.00  0.00    -0.344 N
ATOM     25  N   UNL     1      32.530  11.068  -3.013  1.00  0.00    -0.247 NA
ATOM     26  C   UNL     1      34.734  10.670  -2.169  1.00  0.00     0.156 A
ATOM     27  C   UNL     1      32.371   9.727  -2.954  1.00  0.00     0.063 A
ATOM     28  N   UNL     1      34.636   9.327  -2.074  1.00  0.00    -0.235 NA
ATOM     29  C   UNL     1      33.405   8.903  -2.493  1.00  0.00     0.137 A
ATOM     30  H   UNL     1      36.684  11.087  -1.491  1.00  0.00     0.168 HD
BRANCH  27  31
ATOM     31  C   UNL     1      31.014   9.221  -3.374  1.00  0.00     0.043 C
ATOM     32  C   UNL     1      30.768   8.173  -4.427  1.00  0.00     0.014 C
ATOM     33  C   UNL     1      30.582   9.622  -4.783  1.00  0.00    -0.001 C
BRANCH  33  34
ATOM     34  C   UNL     1      29.248  10.281  -4.969  1.00  0.00     0.004 C
ATOM     35  G   UNL     1      28.390   9.560  -6.025  1.00  0.00     0.000 C
ENDBRANCH  33  34
ENDBRANCH  27  31
ENDBRANCH   2  21
TORSDOF 2
ENDMDL
MODEL 9
REMARK VINA RESULT:      -8.0      2.844      5.050
REMARK SMILES N#C[C@@H]1CCN(C(=O)[C@@H]2NC(=O)c3c[nH]c4ncc(nc34)[C@@H]3C[C@H]3CCCC23CC3)C1
REMARK SMILES IDX 10 1 11 2 12 3 9 5 7 6 8 7 6 8 1 9 2 10 3 11 4 12 31 13 5 14
REMARK SMILES IDX 28 15 29 16 30 17 27 18 26 19 13 21 14 22 21 23 15 24 20 25
REMARK SMILES IDX 16 26 19 27 17 28 18 29 22 31 23 32 24 33 25 34
REMARK H PARENT 10 4 15 30
REMARK Flexibility Score:   57.900
ROOT
ATOM      1  N   UNL     1      29.557  15.400  -6.113  1.00  0.00    -0.340 N
ATOM      2  C   UNL     1      28.480  14.909  -6.809  1.00  0.00     0.255 C
ATOM      3  O   UNL     1      27.902  15.536  -7.690  1.00  0.00    -0.269 OA
ATOM      4  H   UNL     1      29.947  14.815  -5.377  1.00  0.00     0.164 HD
ENDROOT
BRANCH   1   5
ATOM      5  C   UNL     1      30.087  16.736  -6.273  1.00  0.00     0.178 C
BRANCH   5   6
ATOM      6  C   UNL     1      29.234  17.730  -5.431  1.00  0.00     0.245 C
ATOM      7  O   UNL     1      29.103  17.597  -4.210  1.00  0.00    -0.272 OA
BRANCH   6   8
ATOM      8  N   UNL     1      28.597  18.762  -6.095  1.00  0.00    -0.340 N
ATOM      9  N   UNL     1      26.868  19.467  -9.709  1.00  0.00    -0.198 NA
ATOM     10  C   UNL     1      26.944  19.779  -8.594  1.00  0.00     0.067 C
ATOM     11  C   UNL     1      27.030  20.179  -7.181  1.00  0.00     0.114 C
ATOM     12  C   UNL     1      28.315  20.958  -6.892  1.00  0.00     0.042 C
ATOM     13  C   UNL     1      27.163  18.955  -6.275  1.00  0.00     0.138 C
ATOM     14  C   UNL     1      29.353  19.868  -6.654  1.00  0.00     0.121 C
ENDBRANCH   6   8
ENDBRANCH   5   6
BRANCH   5  15
ATOM     15  C   UNL     1      31.578  16.748  -5.867  1.00  0.00    -0.000 C
ATOM     16  C   UNL     1      32.549  17.398  -6.849  1.00  0.00     0.010 C
ATOM     17  C   UNL     1      32.198  18.110  -5.583  1.00  0.00     0.010 C
BRANCH  15  18
ATOM     18  C   UNL     1      32.053  15.593  -4.964  1.00  0.00     0.010 C
BRANCH  18  19
ATOM     19  C   UNL     1      32.278  15.985  -3.494  1.00  0.00     0.001 C
ATOM     20  G   UNL     1      31.184  15.472  -2.539  1.00  0.00     0.000 C
ENDBRANCH  18  19
ENDBRANCH  15  18
ENDBRANCH   5  15
ENDBRANCH   1   5
BRANCH   2  21
ATOM     21  C   UNL     1      28.078  13.570  -6.389  1.00  0.00     0.085 A
ATOM     22  C   UNL     1      26.907  12.896  -6.709  1.00  0.00     0.100 A
ATOM     23  C   UNL     1      28.806  12.693  -5.549  1.00  0.00     0.120 A
ATOM     24  N   UNL     1      26.919  11.669  -6.076  1.00  0.00    -0.344 N
ATOM     25  N   UNL     1      30.017  12.882  -4.976  1.00  0.00    -0.247 NA
ATOM     26  C   UNL     1      28.075  11.534  -5.356  1.00  0.00     0.156 A
ATOM     27  C   UNL     1      30.445  11.869  -4.190  1.00  0.00     0.063 A
ATOM     28  N   UNL     1      28.449  10.484  -4.596  1.00  0.00    -0.235 NA
ATOM     29  C   UNL     1      29.670  10.716  -4.022  1.00  0.00     0.137 A
ATOM     30  H   UNL     1      26.195  10.967  -6.118  1.00  0.00     0.168 HD
BRANCH  27  31
ATOM     31  C   UNL     1      31.803  12.069  -3.566  1.00  0.00     0.043 C
ATOM     32  C   UNL     1      33.075  12.339  -4.326  1.00  0.00     0.014 C
ATOM     33  C   UNL     1      32.806  10.946  -3.827  1.00  0.00    -0.001 C
BRANCH  33  34
ATOM     34  C   UNL     1      33.506  10.318  -2.659  1.00  0.00     0.004 C
ATOM     35  G   UNL     1      32.973   8.905  -2.357  1.00  0.00     0.000 C
ENDBRANCH  33  34
ENDBRANCH  27  31
ENDBRANCH   2  21
TORSDOF 2
ENDMDL
