MODEL 1
REMARK VINA RESULT:      -7.3      0.000      0.000
REMARK SMILES C1=C2/COCc3cc(ccc3OCCN3CC[C@H](COC2)C3)Nc2nccc(n2)-c2ccc(s2)COC/1
REMARK SMILES IDX 6 1 7 2 8 3 9 4 10 5 11 6 5 7 4 8 3 9 2 10 1 11 21 13 20 14
REMARK SMILES IDX 19 15 12 17 13 18 14 19 15 20 16 21 22 22 17 23 18 24 23 26
REMARK SMILES IDX 24 28 25 29 29 30 26 31 28 32 27 33 30 34 31 35 34 36 32 37
REMARK SMILES IDX 33 38 35 39 36 40 37 41
REMARK H PARENT 23 27
REMARK Flexibility Score:   91.800
ROOT
ATOM      1  C   UNL     1      29.281  13.402  -4.280  1.00  0.00     0.022 A
ATOM      2  C   UNL     1      28.406  14.447  -4.649  1.00  0.00     0.036 A
ATOM      3  C   UNL     1      27.200  14.206  -5.311  1.00  0.00     0.042 A
ATOM      4  C   UNL     1      26.889  12.880  -5.624  1.00  0.00     0.030 A
ATOM      5  C   UNL     1      27.767  11.833  -5.312  1.00  0.00     0.049 A
ATOM      6  C   UNL     1      28.979  12.084  -4.663  1.00  0.00     0.125 A
ENDROOT
BRANCH   1   7
ATOM      7  C   UNL     1      30.504  13.752  -3.462  1.00  0.00     0.200 C
BRANCH   7   8
ATOM      8  O   UNL     1      31.720  13.564  -4.190  1.00  0.00    -0.372 OA
BRANCH   8   9
ATOM      9  C   UNL     1      32.844  13.960  -3.410  1.00  0.00     0.194 C
BRANCH   9  10
ATOM     10  C   UNL     1      33.732  12.802  -3.008  1.00  0.00    -0.021 C
ATOM     11  C   UNL     1      34.789  12.954  -2.183  1.00  0.00     0.005 C
ATOM     12  G   UNL     1      35.767  11.930  -1.698  1.00  0.00     0.000 C
BRANCH  10  13
ATOM     13  C   UNL     1      33.306  11.509  -3.660  1.00  0.00     0.193 C
BRANCH  13  14
ATOM     14  O   UNL     1      32.663  10.703  -2.669  1.00  0.00    -0.377 OA
BRANCH  14  15
ATOM     15  C   UNL     1      32.917   9.305  -2.806  1.00  0.00     0.165 C
ATOM     16  G   UNL     1      34.123   8.874  -1.973  1.00  0.00     0.000 C
ENDBRANCH  14  15
ENDBRANCH  13  14
ENDBRANCH  10  13
ENDBRANCH   9  10
ENDBRANCH   8   9
ENDBRANCH   7   8
ENDBRANCH   1   7
BRANCH   6  17
ATOM     17  O   UNL     1      29.915  11.119  -4.377  1.00  0.00    -0.492 OA
BRANCH  17  18
ATOM     18  C   UNL     1      30.184  10.153  -5.402  1.00  0.00     0.245 C
BRANCH  18  19
ATOM     19  C   UNL     1      29.752   8.731  -4.973  1.00  0.00     0.126 C
BRANCH  19  20
ATOM     20  N   UNL     1      28.965   7.914  -5.906  1.00  0.00    -0.300 NA
ATOM     21  C   UNL     1      28.951   8.350  -7.299  1.00  0.00     0.085 C
ATOM     22  C   UNL     1      29.226   6.474  -5.852  1.00  0.00     0.090 C
ATOM     23  C   UNL     1      28.560   7.091  -8.058  1.00  0.00     0.023 C
ATOM     24  C   UNL     1      29.337   6.020  -7.308  1.00  0.00     0.030 C
ATOM     25  G   UNL     1      28.834   4.600  -7.558  1.00  0.00     0.000 C
ENDBRANCH  19  20
ENDBRANCH  18  19
ENDBRANCH  17  18
ENDBRANCH   6  17
BRANCH   3  26
ATOM     26  N   UNL     1      26.334  15.220  -5.730  1.00  0.00    -0.324 N
ATOM     27  H   UNL     1      25.357  15.127  -5.503  1.00  0.00     0.170 HD
BRANCH  26  28
ATOM     28  C   UNL     1      26.547  16.383  -6.464  1.00  0.00     0.227 A
ATOM     29  N   UNL     1      25.805  16.512  -7.576  1.00  0.00    -0.221 NA
ATOM     30  N   UNL     1      27.492  17.259  -6.109  1.00  0.00    -0.212 NA
ATOM     31  C   UNL     1      26.037  17.592  -8.344  1.00  0.00     0.117 A
ATOM     32  C   UNL     1      27.714  18.317  -6.914  1.00  0.00     0.086 A
ATOM     33  C   UNL     1      26.994  18.533  -8.066  1.00  0.00     0.050 A
BRANCH  32  34
ATOM     34  C   UNL     1      28.825  19.191  -6.515  1.00  0.00     0.053 A
ATOM     35  C   UNL     1      28.934  20.568  -6.606  1.00  0.00     0.022 A
ATOM     36  S   UNL     1      30.249  18.518  -5.834  1.00  0.00    -0.136 S
ATOM     37  C   UNL     1      30.206  21.052  -6.179  1.00  0.00     0.018 A
ATOM     38  C   UNL     1      31.037  20.035  -5.755  1.00  0.00     0.031 A
BRANCH  38  39
ATOM     39  C   UNL     1      32.452  20.120  -5.279  1.00  0.00     0.207 C
BRANCH  39  40
ATOM     40  O   UNL     1      33.279  19.713  -6.368  1.00  0.00    -0.372 OA
BRANCH  40  41
ATOM     41  C   UNL     1      34.002  18.509  -6.123  1.00  0.00     0.188 C
ATOM     42  G   UNL     1      33.700  17.501  -7.189  1.00  0.00     0.000 C
ENDBRANCH  40  41
ENDBRANCH  39  40
ENDBRANCH  38  39
ENDBRANCH  32  34
ENDBRANCH  26  28
ENDBRANCH   3  26
TORSDOF 0
ENDMDL
MODEL 2
REMARK VINA RESULT:      -7.3      2.935      9.388
REMARK SMILES C1=C2/COCc3cc(ccc3OCCN3CC[C@H](COC2)C3)Nc2nccc(n2)-c2ccc(s2)COC/1
REMARK SMILES IDX 6 1 7 2 8 3 9 4 10 5 11 6 5 7 4 8 3 9 2 10 1 11 21 13 20 14
REMARK SMILES IDX 19 15 12 17 13 18 14 19 15 20 16 21 22 22 17 23 18 24 23 26
REMARK SMILES IDX 24 28 25 29 29 30 26 31 28 32 27 33 30 34 31 35 34 36 32 37
REMARK SMILES IDX 33 38 35 39 36 40 37 41
REMARK H PARENT 23 27
REMARK Flexibility Score:   91.800
ROOT
ATOM      1  C   UNL     1      31.297  15.164  -4.796  1.00  0.00     0.022 A
ATOM      2  C   UNL     1      32.257  14.165  -4.525  1.00  0.00     0.036 A
ATOM      3  C   UNL     1      32.692  13.887  -3.226  1.00  0.00     0.042 A
ATOM      4  C   UNL     1      32.158  14.656  -2.189  1.00  0.00     0.030 A
ATOM      5  C   UNL     1      31.242  15.686  -2.442  1.00  0.00     0.049 A
ATOM      6  C   UNL     1      30.823  15.968  -3.745  1.00  0.00     0.125 A
ENDROOT
BRANCH   1   7
ATOM      7  C   UNL     1      30.802  15.309  -6.218  1.00  0.00     0.200 C
BRANCH   7   8
ATOM      8  O   UNL     1      31.187  16.553  -6.807  1.00  0.00    -0.372 OA
BRANCH   8   9
ATOM      9  C   UNL     1      32.546  16.858  -6.506  1.00  0.00     0.194 C
BRANCH   9  10
ATOM     10  C   UNL     1      32.825  18.344  -6.440  1.00  0.00    -0.021 C
ATOM     11  C   UNL     1      34.033  18.866  -6.741  1.00  0.00     0.005 C
ATOM     12  G   UNL     1      34.480  20.295  -6.718  1.00  0.00     0.000 C
BRANCH  10  13
ATOM     13  C   UNL     1      31.621  19.128  -5.978  1.00  0.00     0.193 C
BRANCH  13  14
ATOM     14  O   UNL     1      31.794  19.432  -4.591  1.00  0.00    -0.377 OA
BRANCH  14  15
ATOM     15  C   UNL     1      31.203  20.668  -4.192  1.00  0.00     0.165 C
ATOM     16  G   UNL     1      30.919  21.564  -5.396  1.00  0.00     0.000 C
ENDBRANCH  14  15
ENDBRANCH  13  14
ENDBRANCH  10  13
ENDBRANCH   9  10
ENDBRANCH   8   9
ENDBRANCH   7   8
ENDBRANCH   1   7
BRANCH   6  17
ATOM     17  O   UNL     1      29.975  16.997  -4.078  1.00  0.00    -0.492 OA
BRANCH  17  18
ATOM     18  C   UNL     1      28.586  16.670  -4.222  1.00  0.00     0.245 C
BRANCH  18  19
ATOM     19  C   UNL     1      27.874  17.626  -5.208  1.00  0.00     0.126 C
BRANCH  19  20
ATOM     20  N   UNL     1      26.866  17.081  -6.126  1.00  0.00    -0.300 NA
ATOM     21  C   UNL     1      27.160  17.189  -7.553  1.00  0.00     0.085 C
ATOM     22  C   UNL     1      26.416  15.720  -5.827  1.00  0.00     0.090 C
ATOM     23  C   UNL     1      26.281  16.116  -8.176  1.00  0.00     0.023 C
ATOM     24  C   UNL     1      26.406  14.984  -7.168  1.00  0.00     0.030 C
ATOM     25  G   UNL     1      25.316  13.922  -7.288  1.00  0.00     0.000 C
ENDBRANCH  19  20
ENDBRANCH  18  19
ENDBRANCH  17  18
ENDBRANCH   6  17
BRANCH   3  26
ATOM     26  N   UNL     1      33.672  12.938  -2.929  1.00  0.00    -0.324 N
ATOM     27  H   UNL     1      34.629  13.250  -2.875  1.00  0.00     0.170 HD
BRANCH  26  28
ATOM     28  C   UNL     1      33.604  11.565  -2.709  1.00  0.00     0.227 A
ATOM     29  N   UNL     1      34.615  11.040  -1.998  1.00  0.00    -0.221 NA
ATOM     30  N   UNL     1      32.630  10.828  -3.251  1.00  0.00    -0.212 NA
ATOM     31  C   UNL     1      34.614   9.705  -1.827  1.00  0.00     0.117 A
ATOM     32  C   UNL     1      32.674   9.492  -3.081  1.00  0.00     0.086 A
ATOM     33  C   UNL     1      33.666   8.870  -2.358  1.00  0.00     0.050 A
BRANCH  32  34
ATOM     34  C   UNL     1      31.626   8.732  -3.776  1.00  0.00     0.053 A
ATOM     35  C   UNL     1      31.431   7.363  -3.841  1.00  0.00     0.022 A
ATOM     36  S   UNL     1      30.420   9.555  -4.678  1.00  0.00    -0.136 S
ATOM     37  C   UNL     1      30.337   6.999  -4.681  1.00  0.00     0.018 A
ATOM     38  C   UNL     1      29.709   8.099  -5.227  1.00  0.00     0.031 A
BRANCH  38  39
ATOM     39  C   UNL     1      28.562   8.141  -6.186  1.00  0.00     0.207 C
BRANCH  39  40
ATOM     40  O   UNL     1      28.417   9.499  -6.598  1.00  0.00    -0.372 OA
BRANCH  40  41
ATOM     41  C   UNL     1      27.235  10.127  -6.107  1.00  0.00     0.188 C
ATOM     42  G   UNL     1      27.484  11.584  -5.873  1.00  0.00     0.000 C
ENDBRANCH  40  41
ENDBRANCH  39  40
ENDBRANCH  38  39
ENDBRANCH  32  34
ENDBRANCH  26  28
ENDBRANCH   3  26
TORSDOF 0
ENDMDL
MODEL 3
REMARK VINA RESULT:      -7.2      3.091      8.932
REMARK SMILES C1=C2/COCc3cc(ccc3OCCN3CC[C@H](COC2)C3)Nc2nccc(n2)-c2ccc(s2)COC/1
REMARK SMILES IDX 6 1 7 2 8 3 9 4 10 5 11 6 5 7 4 8 3 9 2 10 1 11 21 13 20 14
REMARK SMILES IDX 19 15 12 17 13 18 14 19 15 20 16 21 22 22 17 23 18 24 23 26
REMARK SMILES IDX 24 28 25 29 29 30 26 31 28 32 27 33 30 34 31 35 34 36 32 37
REMARK SMILES IDX 33 38 35 39 36 40 37 41
REMARK H PARENT 23 27
REMARK Flexibility Score:   91.800
ROOT
ATOM      1  C   UNL     1      31.091  14.518  -5.801  1.00  0.00     0.022 A
ATOM      2  C   UNL     1      29.758  14.056  -5.762  1.00  0.00     0.036 A
ATOM      3  C   UNL     1      28.676  14.884  -6.073  1.00  0.00     0.042 A
ATOM      4  C   UNL     1      28.955  16.211  -6.407  1.00  0.00     0.030 A
ATOM      5  C   UNL     1      30.267  16.704  -6.403  1.00  0.00     0.049 A
ATOM      6  C   UNL     1      31.342  15.874  -6.075  1.00  0.00     0.125 A
ENDROOT
BRANCH   1   7
ATOM      7  C   UNL     1      32.200  13.517  -5.564  1.00  0.00     0.200 C
BRANCH   7   8
ATOM      8  O   UNL     1      31.702  12.221  -5.224  1.00  0.00    -0.372 OA
BRANCH   8   9
ATOM      9  C   UNL     1      31.974  11.914  -3.860  1.00  0.00     0.194 C
BRANCH   9  10
ATOM     10  C   UNL     1      32.082  10.429  -3.591  1.00  0.00    -0.021 C
ATOM     11  C   UNL     1      31.222   9.534  -4.121  1.00  0.00     0.005 C
ATOM     12  G   UNL     1      31.178   8.047  -3.950  1.00  0.00     0.000 C
BRANCH  10  13
ATOM     13  C   UNL     1      33.223  10.104  -2.658  1.00  0.00     0.193 C
BRANCH  13  14
ATOM     14  O   UNL     1      34.393  10.774  -3.137  1.00  0.00    -0.377 OA
BRANCH  14  15
ATOM     15  C   UNL     1      35.197  11.345  -2.104  1.00  0.00     0.165 C
ATOM     16  G   UNL     1      35.226  12.868  -2.200  1.00  0.00     0.000 C
ENDBRANCH  14  15
ENDBRANCH  13  14
ENDBRANCH  10  13
ENDBRANCH   9  10
ENDBRANCH   8   9
ENDBRANCH   7   8
ENDBRANCH   1   7
BRANCH   6  17
ATOM     17  O   UNL     1      32.648  16.297  -5.993  1.00  0.00    -0.492 OA
BRANCH  17  18
ATOM     18  C   UNL     1      33.100  17.203  -7.008  1.00  0.00     0.245 C
BRANCH  18  19
ATOM     19  C   UNL     1      34.303  18.046  -6.526  1.00  0.00     0.126 C
BRANCH  19  20
ATOM     20  N   UNL     1      34.051  19.323  -5.844  1.00  0.00    -0.300 NA
ATOM     21  C   UNL     1      34.383  20.534  -6.588  1.00  0.00     0.085 C
ATOM     22  C   UNL     1      32.717  19.466  -5.256  1.00  0.00     0.090 C
ATOM     23  C   UNL     1      33.547  21.607  -5.906  1.00  0.00     0.023 C
ATOM     24  C   UNL     1      32.243  20.867  -5.645  1.00  0.00     0.030 C
ATOM     25  G   UNL     1      31.350  21.535  -4.602  1.00  0.00     0.000 C
ENDBRANCH  19  20
ENDBRANCH  18  19
ENDBRANCH  17  18
ENDBRANCH   6  17
BRANCH   3  26
ATOM     26  N   UNL     1      27.343  14.470  -6.001  1.00  0.00    -0.324 N
ATOM     27  H   UNL     1      26.848  14.629  -5.138  1.00  0.00     0.170 HD
BRANCH  26  28
ATOM     28  C   UNL     1      26.518  13.820  -6.913  1.00  0.00     0.227 A
ATOM     29  N   UNL     1      25.261  14.284  -6.994  1.00  0.00    -0.221 NA
ATOM     30  N   UNL     1      26.949  12.752  -7.593  1.00  0.00    -0.212 NA
ATOM     31  C   UNL     1      24.419  13.633  -7.817  1.00  0.00     0.117 A
ATOM     32  C   UNL     1      26.072  12.109  -8.389  1.00  0.00     0.086 A
ATOM     33  C   UNL     1      24.769  12.522  -8.540  1.00  0.00     0.050 A
BRANCH  32  34
ATOM     34  C   UNL     1      26.582  10.892  -9.036  1.00  0.00     0.053 A
ATOM     35  C   UNL     1      27.271  10.756 -10.229  1.00  0.00     0.022 A
ATOM     36  S   UNL     1      26.340   9.360  -8.301  1.00  0.00    -0.136 S
ATOM     37  C   UNL     1      27.536   9.394 -10.562  1.00  0.00     0.018 A
ATOM     38  C   UNL     1      27.057   8.520  -9.608  1.00  0.00     0.031 A
BRANCH  38  39
ATOM     39  C   UNL     1      27.093   7.025  -9.607  1.00  0.00     0.207 C
BRANCH  39  40
ATOM     40  O   UNL     1      26.956   6.609  -8.250  1.00  0.00    -0.372 OA
BRANCH  40  41
ATOM     41  C   UNL     1      27.758   5.480  -7.909  1.00  0.00     0.188 C
ATOM     42  G   UNL     1      29.182   5.900  -7.711  1.00  0.00     0.000 C
ENDBRANCH  40  41
ENDBRANCH  39  40
ENDBRANCH  38  39
ENDBRANCH  32  34
ENDBRANCH  26  28
ENDBRANCH   3  26
TORSDOF 0
ENDMDL
MODEL 4
REMARK VINA RESULT:      -7.2      3.178     10.372
REMARK SMILES C1=C2/COCc3cc(ccc3OCCN3CC[C@H](COC2)C3)Nc2nccc(n2)-c2ccc(s2)COC/1
REMARK SMILES IDX 6 1 7 2 8 3 9 4 10 5 11 6 5 7 4 8 3 9 2 10 1 11 21 13 20 14
REMARK SMILES IDX 19 15 12 17 13 18 14 19 15 20 16 21 22 22 17 23 18 24 23 26
REMARK SMILES IDX 24 28 25 29 29 30 26 31 28 32 27 33 30 34 31 35 34 36 32 37
REMARK SMILES IDX 33 38 35 39 36 40 37 41
REMARK H PARENT 23 27
REMARK Flexibility Score:   91.800
ROOT
ATOM      1  C   UNL     1      31.123  15.478  -5.095  1.00  0.00     0.022 A
ATOM      2  C   UNL     1      32.032  14.404  -4.968  1.00  0.00     0.036 A
ATOM      3  C   UNL     1      32.327  13.825  -3.731  1.00  0.00     0.042 A
ATOM      4  C   UNL     1      31.705  14.363  -2.602  1.00  0.00     0.030 A
ATOM      5  C   UNL     1      30.840  15.461  -2.699  1.00  0.00     0.049 A
ATOM      6  C   UNL     1      30.561  16.045  -3.938  1.00  0.00     0.125 A
ENDROOT
BRANCH   1   7
ATOM      7  C   UNL     1      30.779  15.959  -6.487  1.00  0.00     0.200 C
BRANCH   7   8
ATOM      8  O   UNL     1      29.468  15.562  -6.893  1.00  0.00    -0.372 OA
BRANCH   8   9
ATOM      9  C   UNL     1      28.694  16.692  -7.286  1.00  0.00     0.194 C
BRANCH   9  10
ATOM     10  C   UNL     1      27.321  16.325  -7.807  1.00  0.00    -0.021 C
ATOM     11  C   UNL     1      26.622  17.133  -8.633  1.00  0.00     0.005 C
ATOM     12  G   UNL     1      25.262  16.932  -9.225  1.00  0.00     0.000 C
BRANCH  10  13
ATOM     13  C   UNL     1      26.847  14.997  -7.269  1.00  0.00     0.193 C
BRANCH  13  14
ATOM     14  O   UNL     1      25.922  15.252  -6.207  1.00  0.00    -0.377 OA
BRANCH  14  15
ATOM     15  C   UNL     1      26.522  15.278  -4.912  1.00  0.00     0.165 C
ATOM     16  G   UNL     1      27.428  14.068  -4.693  1.00  0.00     0.000 C
ENDBRANCH  14  15
ENDBRANCH  13  14
ENDBRANCH  10  13
ENDBRANCH   9  10
ENDBRANCH   8   9
ENDBRANCH   7   8
ENDBRANCH   1   7
BRANCH   6  17
ATOM     17  O   UNL     1      29.771  17.157  -4.107  1.00  0.00    -0.492 OA
BRANCH  17  18
ATOM     18  C   UNL     1      30.429  18.431  -4.069  1.00  0.00     0.245 C
BRANCH  18  19
ATOM     19  C   UNL     1      29.936  19.361  -5.202  1.00  0.00     0.126 C
BRANCH  19  20
ATOM     20  N   UNL     1      30.922  20.144  -5.960  1.00  0.00    -0.300 NA
ATOM     21  C   UNL     1      31.150  21.514  -5.510  1.00  0.00     0.085 C
ATOM     22  C   UNL     1      32.212  19.485  -6.178  1.00  0.00     0.090 C
ATOM     23  C   UNL     1      32.519  21.849  -6.080  1.00  0.00     0.023 C
ATOM     24  C   UNL     1      33.272  20.544  -5.873  1.00  0.00     0.030 C
ATOM     25  G   UNL     1      34.539  20.418  -6.716  1.00  0.00     0.000 C
ENDBRANCH  19  20
ENDBRANCH  18  19
ENDBRANCH  17  18
ENDBRANCH   6  17
BRANCH   3  26
ATOM     26  N   UNL     1      33.253  12.792  -3.566  1.00  0.00    -0.324 N
ATOM     27  H   UNL     1      34.227  13.007  -3.709  1.00  0.00     0.170 HD
BRANCH  26  28
ATOM     28  C   UNL     1      33.101  11.444  -3.256  1.00  0.00     0.227 A
ATOM     29  N   UNL     1      34.045  10.922  -2.456  1.00  0.00    -0.221 NA
ATOM     30  N   UNL     1      32.118  10.719  -3.798  1.00  0.00    -0.212 NA
ATOM     31  C   UNL     1      33.964   9.605  -2.193  1.00  0.00     0.117 A
ATOM     32  C   UNL     1      32.081   9.398  -3.533  1.00  0.00     0.086 A
ATOM     33  C   UNL     1      33.001   8.782  -2.716  1.00  0.00     0.050 A
BRANCH  32  34
ATOM     34  C   UNL     1      31.032   8.643  -4.230  1.00  0.00     0.053 A
ATOM     35  C   UNL     1      30.844   7.274  -4.314  1.00  0.00     0.022 A
ATOM     36  S   UNL     1      29.812   9.473  -5.108  1.00  0.00    -0.136 S
ATOM     37  C   UNL     1      29.744   6.917  -5.149  1.00  0.00     0.018 A
ATOM     38  C   UNL     1      29.104   8.022  -5.673  1.00  0.00     0.031 A
BRANCH  38  39
ATOM     39  C   UNL     1      27.948   8.072  -6.620  1.00  0.00     0.207 C
BRANCH  39  40
ATOM     40  O   UNL     1      27.452   9.409  -6.596  1.00  0.00    -0.372 OA
BRANCH  40  41
ATOM     41  C   UNL     1      26.924   9.850  -7.845  1.00  0.00     0.188 C
ATOM     42  G   UNL     1      26.825  11.344  -7.864  1.00  0.00     0.000 C
ENDBRANCH  40  41
ENDBRANCH  39  40
ENDBRANCH  38  39
ENDBRANCH  32  34
ENDBRANCH  26  28
ENDBRANCH   3  26
TORSDOF 0
ENDMDL
MODEL 5
REMARK VINA RESULT:      -7.2      2.969      7.647
REMARK SMILES C1=C2/COCc3cc(ccc3OCCN3CC[C@H](COC2)C3)Nc2nccc(n2)-c2ccc(s2)COC/1
REMARK SMILES IDX 6 1 7 2 8 3 9 4 10 5 11 6 5 7 4 8 3 9 2 10 1 11 21 13 20 14
REMARK SMILES IDX 19 15 12 17 13 18 14 19 15 20 16 21 22 22 17 23 18 24 23 26
REMARK SMILES IDX 24 28 25 29 29 30 26 31 28 32 27 33 30 34 31 35 34 36 32 37
REMARK SMILES IDX 33 38 35 39 36 40 37 41
REMARK H PARENT 23 27
REMARK Flexibility Score:   91.800
ROOT
ATOM      1  C   UNL     1      29.783   9.609  -4.947  1.00  0.00     0.022 A
ATOM      2  C   UNL     1      30.845   9.582  -4.016  1.00  0.00     0.036 A
ATOM      3  C   UNL     1      31.469   8.391  -3.638  1.00  0.00     0.042 A
ATOM      4  C   UNL     1      30.989   7.205  -4.198  1.00  0.00     0.030 A
ATOM      5  C   UNL     1      29.904   7.204  -5.085  1.00  0.00     0.049 A
ATOM      6  C   UNL     1      29.275   8.399  -5.447  1.00  0.00     0.125 A
ENDROOT
BRANCH   1   7
ATOM      7  C   UNL     1      29.253  10.957  -5.383  1.00  0.00     0.200 C
BRANCH   7   8
ATOM      8  O   UNL     1      28.696  11.702  -4.298  1.00  0.00    -0.372 OA
BRANCH   8   9
ATOM      9  C   UNL     1      29.072  13.074  -4.378  1.00  0.00     0.194 C
BRANCH   9  10
ATOM     10  C   UNL     1      28.044  13.937  -5.077  1.00  0.00    -0.021 C
ATOM     11  C   UNL     1      26.823  13.473  -5.417  1.00  0.00     0.005 C
ATOM     12  G   UNL     1      25.702  14.179  -6.115  1.00  0.00     0.000 C
BRANCH  10  13
ATOM     13  C   UNL     1      28.565  15.325  -5.359  1.00  0.00     0.193 C
BRANCH  13  14
ATOM     14  O   UNL     1      27.673  16.265  -4.752  1.00  0.00    -0.377 OA
BRANCH  14  15
ATOM     15  C   UNL     1      28.240  17.563  -4.567  1.00  0.00     0.165 C
ATOM     16  G   UNL     1      28.129  18.405  -5.835  1.00  0.00     0.000 C
ENDBRANCH  14  15
ENDBRANCH  13  14
ENDBRANCH  10  13
ENDBRANCH   9  10
ENDBRANCH   8   9
ENDBRANCH   7   8
ENDBRANCH   1   7
BRANCH   6  17
ATOM     17  O   UNL     1      28.171   8.473  -6.264  1.00  0.00    -0.492 OA
BRANCH  17  18
ATOM     18  C   UNL     1      28.167   7.632  -7.425  1.00  0.00     0.245 C
BRANCH  18  19
ATOM     19  C   UNL     1      27.279   8.215  -8.549  1.00  0.00     0.126 C
BRANCH  19  20
ATOM     20  N   UNL     1      27.531   9.585  -9.017  1.00  0.00    -0.300 NA
ATOM     21  C   UNL     1      27.851   9.739 -10.433  1.00  0.00     0.085 C
ATOM     22  C   UNL     1      26.517  10.572  -8.640  1.00  0.00     0.090 C
ATOM     23  C   UNL     1      27.521  11.197 -10.713  1.00  0.00     0.023 C
ATOM     24  C   UNL     1      26.246  11.389  -9.905  1.00  0.00     0.030 C
ATOM     25  G   UNL     1      25.895  12.851  -9.639  1.00  0.00     0.000 C
ENDBRANCH  19  20
ENDBRANCH  18  19
ENDBRANCH  17  18
ENDBRANCH   6  17
BRANCH   3  26
ATOM     26  N   UNL     1      32.490   8.325  -2.687  1.00  0.00    -0.324 N
ATOM     27  H   UNL     1      32.548   7.496  -2.116  1.00  0.00     0.170 HD
BRANCH  26  28
ATOM     28  C   UNL     1      33.483   9.228  -2.321  1.00  0.00     0.227 A
ATOM     29  N   UNL     1      34.435   8.747  -1.505  1.00  0.00    -0.221 NA
ATOM     30  N   UNL     1      33.426  10.508  -2.704  1.00  0.00    -0.212 NA
ATOM     31  C   UNL     1      35.371   9.614  -1.078  1.00  0.00     0.117 A
ATOM     32  C   UNL     1      34.366  11.354  -2.238  1.00  0.00     0.086 A
ATOM     33  C   UNL     1      35.383  10.944  -1.407  1.00  0.00     0.050 A
BRANCH  32  34
ATOM     34  C   UNL     1      34.195  12.761  -2.623  1.00  0.00     0.053 A
ATOM     35  C   UNL     1      35.111  13.798  -2.587  1.00  0.00     0.022 A
ATOM     36  S   UNL     1      32.680  13.316  -3.208  1.00  0.00    -0.136 S
ATOM     37  C   UNL     1      34.546  15.049  -2.976  1.00  0.00     0.018 A
ATOM     38  C   UNL     1      33.214  14.938  -3.316  1.00  0.00     0.031 A
BRANCH  38  39
ATOM     39  C   UNL     1      32.261  16.014  -3.729  1.00  0.00     0.207 C
BRANCH  39  40
ATOM     40  O   UNL     1      32.911  16.773  -4.747  1.00  0.00    -0.372 OA
BRANCH  40  41
ATOM     41  C   UNL     1      32.239  16.746  -6.004  1.00  0.00     0.188 C
ATOM     42  G   UNL     1      31.907  18.138  -6.442  1.00  0.00     0.000 C
ENDBRANCH  40  41
ENDBRANCH  39  40
ENDBRANCH  38  39
ENDBRANCH  32  34
ENDBRANCH  26  28
ENDBRANCH   3  26
TORSDOF 0
ENDMDL
MODEL 6
REMARK VINA RESULT:      -7.1      2.858      5.233
REMARK SMILES C1=C2/COCc3cc(ccc3OCCN3CC[C@H](COC2)C3)Nc2nccc(n2)-c2ccc(s2)COC/1
REMARK SMILES IDX 6 1 7 2 8 3 9 4 10 5 11 6 5 7 4 8 3 9 2 10 1 11 21 13 20 14
REMARK SMILES IDX 19 15 12 17 13 18 14 19 15 20 16 21 22 22 17 23 18 24 23 26
REMARK SMILES IDX 24 28 25 29 29 30 26 31 28 32 27 33 30 34 31 35 34 36 32 37
REMARK SMILES IDX 33 38 35 39 36 40 37 41
REMARK H PARENT 23 27
REMARK Flexibility Score:   91.800
ROOT
ATOM      1  C   UNL     1      31.586  14.934  -3.885  1.00  0.00     0.022 A
ATOM      2  C   UNL     1      32.146  16.142  -4.356  1.00  0.00     0.036 A
ATOM      3  C   UNL     1      31.743  16.726  -5.560  1.00  0.00     0.042 A
ATOM      4  C   UNL     1      30.770  16.058  -6.307  1.00  0.00     0.030 A
ATOM      5  C   UNL     1      30.238  14.833  -5.882  1.00  0.00     0.049 A
ATOM      6  C   UNL     1      30.658  14.247  -4.685  1.00  0.00     0.125 A
ENDROOT
BRANCH   1   7
ATOM      7  C   UNL     1      32.002  14.444  -2.516  1.00  0.00     0.200 C
BRANCH   7   8
ATOM      8  O   UNL     1      33.394  14.127  -2.448  1.00  0.00    -0.372 OA
BRANCH   8   9
ATOM      9  C   UNL     1      33.697  12.996  -3.258  1.00  0.00     0.194 C
BRANCH   9  10
ATOM     10  C   UNL     1      34.516  11.946  -2.538  1.00  0.00    -0.021 C
ATOM     11  C   UNL     1      35.428  12.263  -1.594  1.00  0.00     0.005 C
ATOM     12  G   UNL     1      36.322  11.361  -0.801  1.00  0.00     0.000 C
BRANCH  10  13
ATOM     13  C   UNL     1      34.205  10.552  -3.025  1.00  0.00     0.193 C
BRANCH  13  14
ATOM     14  O   UNL     1      33.157  10.020  -2.208  1.00  0.00    -0.377 OA
BRANCH  14  15
ATOM     15  C   UNL     1      32.492   8.894  -2.781  1.00  0.00     0.165 C
ATOM     16  G   UNL     1      31.362   9.329  -3.711  1.00  0.00     0.000 C
ENDBRANCH  14  15
ENDBRANCH  13  14
ENDBRANCH  10  13
ENDBRANCH   9  10
ENDBRANCH   8   9
ENDBRANCH   7   8
ENDBRANCH   1   7
BRANCH   6  17
ATOM     17  O   UNL     1      30.226  13.023  -4.231  1.00  0.00    -0.492 OA
BRANCH  17  18
ATOM     18  C   UNL     1      29.377  12.271  -5.108  1.00  0.00     0.245 C
BRANCH  18  19
ATOM     19  C   UNL     1      27.883  12.456  -4.752  1.00  0.00     0.126 C
BRANCH  19  20
ATOM     20  N   UNL     1      26.978  13.036  -5.753  1.00  0.00    -0.300 NA
ATOM     21  C   UNL     1      26.582  14.426  -5.544  1.00  0.00     0.085 C
ATOM     22  C   UNL     1      27.389  12.855  -7.148  1.00  0.00     0.090 C
ATOM     23  C   UNL     1      26.146  14.881  -6.928  1.00  0.00     0.023 C
ATOM     24  C   UNL     1      27.187  14.216  -7.817  1.00  0.00     0.030 C
ATOM     25  G   UNL     1      26.784  14.133  -9.288  1.00  0.00     0.000 C
ENDBRANCH  19  20
ENDBRANCH  18  19
ENDBRANCH  17  18
ENDBRANCH   6  17
BRANCH   3  26
ATOM     26  N   UNL     1      32.308  17.895  -6.076  1.00  0.00    -0.324 N
ATOM     27  H   UNL     1      33.235  17.836  -6.467  1.00  0.00     0.170 HD
BRANCH  26  28
ATOM     28  C   UNL     1      31.844  19.205  -6.140  1.00  0.00     0.227 A
ATOM     29  N   UNL     1      32.736  20.154  -5.813  1.00  0.00    -0.221 NA
ATOM     30  N   UNL     1      30.567  19.471  -6.431  1.00  0.00    -0.212 NA
ATOM     31  C   UNL     1      32.299  21.427  -5.798  1.00  0.00     0.117 A
ATOM     32  C   UNL     1      30.157  20.754  -6.383  1.00  0.00     0.086 A
ATOM     33  C   UNL     1      31.005  21.790  -6.068  1.00  0.00     0.050 A
BRANCH  32  34
ATOM     34  C   UNL     1      28.724  20.968  -6.624  1.00  0.00     0.053 A
ATOM     35  C   UNL     1      28.005  22.151  -6.650  1.00  0.00     0.022 A
ATOM     36  S   UNL     1      27.691  19.630  -6.919  1.00  0.00    -0.136 S
ATOM     37  C   UNL     1      26.608  21.945  -6.846  1.00  0.00     0.018 A
ATOM     38  C   UNL     1      26.290  20.610  -6.981  1.00  0.00     0.031 A
BRANCH  38  39
ATOM     39  C   UNL     1      24.943  19.982  -7.155  1.00  0.00     0.207 C
BRANCH  39  40
ATOM     40  O   UNL     1      25.166  18.620  -7.513  1.00  0.00    -0.372 OA
BRANCH  40  41
ATOM     41  C   UNL     1      24.683  18.279  -8.811  1.00  0.00     0.188 C
ATOM     42  G   UNL     1      25.767  17.624  -9.610  1.00  0.00     0.000 C
ENDBRANCH  40  41
ENDBRANCH  39  40
ENDBRANCH  38  39
ENDBRANCH  32  34
ENDBRANCH  26  28
ENDBRANCH   3  26
TORSDOF 0
ENDMDL
MODEL 7
REMARK VINA RESULT:      -7.1      2.762      6.818
REMARK SMILES C1=C2/COCc3cc(ccc3OCCN3CC[C@H](COC2)C3)Nc2nccc(n2)-c2ccc(s2)COC/1
REMARK SMILES IDX 6 1 7 2 8 3 9 4 10 5 11 6 5 7 4 8 3 9 2 10 1 11 21 13 20 14
REMARK SMILES IDX 19 15 12 17 13 18 14 19 15 20 16 21 22 22 17 23 18 24 23 26
REMARK SMILES IDX 24 28 25 29 29 30 26 31 28 32 27 33 30 34 31 35 34 36 32 37
REMARK SMILES IDX 33 38 35 39 36 40 37 41
REMARK H PARENT 23 27
REMARK Flexibility Score:   91.800
ROOT
ATOM      1  C   UNL     1      32.256  13.885  -4.630  1.00  0.00     0.022 A
ATOM      2  C   UNL     1      31.603  14.675  -5.602  1.00  0.00     0.036 A
ATOM      3  C   UNL     1      31.748  16.065  -5.647  1.00  0.00     0.042 A
ATOM      4  C   UNL     1      32.552  16.661  -4.672  1.00  0.00     0.030 A
ATOM      5  C   UNL     1      33.167  15.900  -3.669  1.00  0.00     0.049 A
ATOM      6  C   UNL     1      33.005  14.513  -3.621  1.00  0.00     0.125 A
ENDROOT
BRANCH   1   7
ATOM      7  C   UNL     1      32.132  12.381  -4.736  1.00  0.00     0.200 C
BRANCH   7   8
ATOM      8  O   UNL     1      30.881  11.974  -5.294  1.00  0.00    -0.372 OA
BRANCH   8   9
ATOM      9  C   UNL     1      30.162  11.150  -4.381  1.00  0.00     0.194 C
BRANCH   9  10
ATOM     10  C   UNL     1      29.254  10.150  -5.065  1.00  0.00    -0.021 C
ATOM     11  C   UNL     1      29.718   9.000  -5.598  1.00  0.00     0.005 C
ATOM     12  G   UNL     1      28.970   7.918  -6.312  1.00  0.00     0.000 C
BRANCH  10  13
ATOM     13  C   UNL     1      27.818  10.614  -5.092  1.00  0.00     0.193 C
BRANCH  13  14
ATOM     14  O   UNL     1      27.692  11.606  -6.116  1.00  0.00    -0.377 OA
BRANCH  14  15
ATOM     15  C   UNL     1      26.942  12.754  -5.718  1.00  0.00     0.165 C
ATOM     16  G   UNL     1      27.844  13.825  -5.110  1.00  0.00     0.000 C
ENDBRANCH  14  15
ENDBRANCH  13  14
ENDBRANCH  10  13
ENDBRANCH   9  10
ENDBRANCH   8   9
ENDBRANCH   7   8
ENDBRANCH   1   7
BRANCH   6  17
ATOM     17  O   UNL     1      33.528  13.708  -2.637  1.00  0.00    -0.492 OA
BRANCH  17  18
ATOM     18  C   UNL     1      34.940  13.464  -2.683  1.00  0.00     0.245 C
BRANCH  18  19
ATOM     19  C   UNL     1      35.357  12.344  -1.701  1.00  0.00     0.126 C
BRANCH  19  20
ATOM     20  N   UNL     1      35.099  10.944  -2.065  1.00  0.00    -0.300 NA
ATOM     21  C   UNL     1      35.299   9.951  -1.013  1.00  0.00     0.085 C
ATOM     22  C   UNL     1      33.817  10.696  -2.728  1.00  0.00     0.090 C
ATOM     23  C   UNL     1      34.470   8.766  -1.485  1.00  0.00     0.023 C
ATOM     24  C   UNL     1      33.236   9.453  -2.051  1.00  0.00     0.030 C
ATOM     25  G   UNL     1      32.404   8.570  -2.978  1.00  0.00     0.000 C
ENDBRANCH  19  20
ENDBRANCH  18  19
ENDBRANCH  17  18
ENDBRANCH   6  17
BRANCH   3  26
ATOM     26  N   UNL     1      31.082  16.879  -6.565  1.00  0.00    -0.324 N
ATOM     27  H   UNL     1      31.640  17.397  -7.226  1.00  0.00     0.170 HD
BRANCH  26  28
ATOM     28  C   UNL     1      29.733  17.166  -6.750  1.00  0.00     0.227 A
ATOM     29  N   UNL     1      29.274  18.246  -6.098  1.00  0.00    -0.221 NA
ATOM     30  N   UNL     1      28.949  16.356  -7.469  1.00  0.00    -0.212 NA
ATOM     31  C   UNL     1      27.959  18.511  -6.202  1.00  0.00     0.117 A
ATOM     32  C   UNL     1      27.632  16.637  -7.531  1.00  0.00     0.086 A
ATOM     33  C   UNL     1      27.078  17.729  -6.903  1.00  0.00     0.050 A
BRANCH  32  34
ATOM     34  C   UNL     1      26.812  15.660  -8.259  1.00  0.00     0.053 A
ATOM     35  C   UNL     1      25.437  15.610  -8.414  1.00  0.00     0.022 A
ATOM     36  S   UNL     1      27.557  14.343  -9.069  1.00  0.00    -0.136 S
ATOM     37  C   UNL     1      25.004  14.459  -9.136  1.00  0.00     0.018 A
ATOM     38  C   UNL     1      26.058  13.663  -9.533  1.00  0.00     0.031 A
BRANCH  38  39
ATOM     39  C   UNL     1      26.022  12.358 -10.264  1.00  0.00     0.207 C
BRANCH  39  40
ATOM     40  O   UNL     1      26.538  11.371  -9.373  1.00  0.00    -0.372 OA
BRANCH  40  41
ATOM     41  C   UNL     1      25.970  10.076  -9.558  1.00  0.00     0.188 C
ATOM     42  G   UNL     1      26.144   9.256  -8.317  1.00  0.00     0.000 C
ENDBRANCH  40  41
ENDBRANCH  39  40
ENDBRANCH  38  39
ENDBRANCH  32  34
ENDBRANCH  26  28
ENDBRANCH   3  26
TORSDOF 0
ENDMDL
MODEL 8
REMARK VINA RESULT:      -7.1      3.080      9.629
REMARK SMILES C1=C2/COCc3cc(ccc3OCCN3CC[C@H](COC2)C3)Nc2nccc(n2)-c2ccc(s2)COC/1
REMARK SMILES IDX 6 1 7 2 8 3 9 4 10 5 11 6 5 7 4 8 3 9 2 10 1 11 21 13 20 14
REMARK SMILES IDX 19 15 12 17 13 18 14 19 15 20 16 21 22 22 17 23 18 24 23 26
REMARK SMILES IDX 24 28 25 29 29 30 26 31 28 32 27 33 30 34 31 35 34 36 32 37
REMARK SMILES IDX 33 38 35 39 36 40 37 41
REMARK H PARENT 23 27
REMARK Flexibility Score:   91.800
ROOT
ATOM      1  C   UNL     1      31.857  11.454  -4.249  1.00  0.00     0.022 A
ATOM      2  C   UNL     1      31.266  10.171  -4.252  1.00  0.00     0.036 A
ATOM      3  C   UNL     1      31.809   9.103  -3.532  1.00  0.00     0.042 A
ATOM      4  C   UNL     1      32.986   9.340  -2.817  1.00  0.00     0.030 A
ATOM      5  C   UNL     1      33.615  10.591  -2.841  1.00  0.00     0.049 A
ATOM      6  C   UNL     1      33.074  11.650  -3.576  1.00  0.00     0.125 A
ENDROOT
BRANCH   1   7
ATOM      7  C   UNL     1      31.130  12.573  -4.962  1.00  0.00     0.200 C
BRANCH   7   8
ATOM      8  O   UNL     1      29.746  12.282  -5.168  1.00  0.00    -0.372 OA
BRANCH   8   9
ATOM      9  C   UNL     1      28.922  13.231  -4.498  1.00  0.00     0.194 C
BRANCH   9  10
ATOM     10  C   UNL     1      27.899  13.881  -5.404  1.00  0.00    -0.021 C
ATOM     11  C   UNL     1      26.798  13.229  -5.835  1.00  0.00     0.005 C
ATOM     12  G   UNL     1      25.703  13.713  -6.734  1.00  0.00     0.000 C
BRANCH  10  13
ATOM     13  C   UNL     1      28.281  15.294  -5.769  1.00  0.00     0.193 C
BRANCH  13  14
ATOM     14  O   UNL     1      27.444  16.187  -5.027  1.00  0.00    -0.377 OA
BRANCH  14  15
ATOM     15  C   UNL     1      26.998  17.318  -5.776  1.00  0.00     0.165 C
ATOM     16  G   UNL     1      27.931  17.613  -6.948  1.00  0.00     0.000 C
ENDBRANCH  14  15
ENDBRANCH  13  14
ENDBRANCH  10  13
ENDBRANCH   9  10
ENDBRANCH   8   9
ENDBRANCH   7   8
ENDBRANCH   1   7
BRANCH   6  17
ATOM     17  O   UNL     1      33.663  12.887  -3.696  1.00  0.00    -0.492 OA
BRANCH  17  18
ATOM     18  C   UNL     1      33.665  13.719  -2.528  1.00  0.00     0.245 C
BRANCH  18  19
ATOM     19  C   UNL     1      33.605  15.220  -2.896  1.00  0.00     0.126 C
BRANCH  19  20
ATOM     20  N   UNL     1      32.535  15.693  -3.783  1.00  0.00    -0.300 NA
ATOM     21  C   UNL     1      31.383  16.315  -3.137  1.00  0.00     0.085 C
ATOM     22  C   UNL     1      32.973  16.531  -4.902  1.00  0.00     0.090 C
ATOM     23  C   UNL     1      30.763  17.149  -4.249  1.00  0.00     0.023 C
ATOM     24  C   UNL     1      31.995  17.706  -4.945  1.00  0.00     0.030 C
ATOM     25  G   UNL     1      31.724  18.240  -6.350  1.00  0.00     0.000 C
ENDBRANCH  19  20
ENDBRANCH  18  19
ENDBRANCH  17  18
ENDBRANCH   6  17
BRANCH   3  26
ATOM     26  N   UNL     1      31.276   7.812  -3.549  1.00  0.00    -0.324 N
ATOM     27  H   UNL     1      31.609   7.157  -2.860  1.00  0.00     0.170 HD
BRANCH  26  28
ATOM     28  C   UNL     1      30.351   7.197  -4.387  1.00  0.00     0.227 A
ATOM     29  N   UNL     1      30.162   5.884  -4.179  1.00  0.00    -0.221 NA
ATOM     30  N   UNL     1      29.765   7.872  -5.380  1.00  0.00    -0.212 NA
ATOM     31  C   UNL     1      29.325   5.245  -5.018  1.00  0.00     0.117 A
ATOM     32  C   UNL     1      28.951   7.196  -6.216  1.00  0.00     0.086 A
ATOM     33  C   UNL     1      28.692   5.853  -6.070  1.00  0.00     0.050 A
BRANCH  32  34
ATOM     34  C   UNL     1      28.410   7.975  -7.338  1.00  0.00     0.053 A
ATOM     35  C   UNL     1      28.712   7.897  -8.687  1.00  0.00     0.022 A
ATOM     36  S   UNL     1      27.234   9.192  -7.054  1.00  0.00    -0.136 S
ATOM     37  C   UNL     1      28.026   8.877  -9.465  1.00  0.00     0.018 A
ATOM     38  C   UNL     1      27.203   9.673  -8.695  1.00  0.00     0.031 A
BRANCH  38  39
ATOM     39  C   UNL     1      26.358  10.831  -9.120  1.00  0.00     0.207 C
BRANCH  39  40
ATOM     40  O   UNL     1      26.823  11.231 -10.408  1.00  0.00    -0.372 OA
BRANCH  40  41
ATOM     41  C   UNL     1      25.807  11.781 -11.243  1.00  0.00     0.188 C
ATOM     42  G   UNL     1      24.535  11.943 -10.469  1.00  0.00     0.000 C
ENDBRANCH  40  41
ENDBRANCH  39  40
ENDBRANCH  38  39
ENDBRANCH  32  34
ENDBRANCH  26  28
ENDBRANCH   3  26
TORSDOF 0
ENDMDL
MODEL 9
REMARK VINA RESULT:      -7.1      2.268      9.170
REMARK SMILES C1=C2/COCc3cc(ccc3OCCN3CC[C@H](COC2)C3)Nc2nccc(n2)-c2ccc(s2)COC/1
REMARK SMILES IDX 6 1 7 2 8 3 9 4 10 5 11 6 5 7 4 8 3 9 2 10 1 11 21 13 20 14
REMARK SMILES IDX 19 15 12 17 13 18 14 19 15 20 16 21 22 22 17 23 18 24 23 26
REMARK SMILES IDX 24 28 25 29 29 30 26 31 28 32 27 33 30 34 31 35 34 36 32 37
REMARK SMILES IDX 33 38 35 39 36 40 37 41
REMARK H PARENT 23 27
REMARK Flexibility Score:   91.800
ROOT
ATOM      1  C   UNL     1      28.919  13.742  -4.595  1.00  0.00     0.022 A
ATOM      2  C   UNL     1      29.063  12.337  -4.637  1.00  0.00     0.036 A
ATOM      3  C   UNL     1      28.136  11.516  -5.285  1.00  0.00     0.042 A
ATOM      4  C   UNL     1      27.033  12.133  -5.881  1.00  0.00     0.030 A
ATOM      5  C   UNL     1      26.846  13.520  -5.808  1.00  0.00     0.049 A
ATOM      6  C   UNL     1      27.769  14.333  -5.144  1.00  0.00     0.125 A
ENDROOT
BRANCH   1   7
ATOM      7  C   UNL     1      30.034  14.553  -3.973  1.00  0.00     0.200 C
BRANCH   7   8
ATOM      8  O   UNL     1      30.812  15.250  -4.948  1.00  0.00    -0.372 OA
BRANCH   8   9
ATOM      9  C   UNL     1      30.848  16.646  -4.665  1.00  0.00     0.194 C
BRANCH   9  10
ATOM     10  C   UNL     1      31.725  17.428  -5.620  1.00  0.00    -0.021 C
ATOM     11  C   UNL     1      32.771  16.868  -6.263  1.00  0.00     0.005 C
ATOM     12  G   UNL     1      33.738  17.492  -7.220  1.00  0.00     0.000 C
BRANCH  10  13
ATOM     13  C   UNL     1      31.300  18.873  -5.725  1.00  0.00     0.193 C
BRANCH  13  14
ATOM     14  O   UNL     1      31.943  19.601  -4.675  1.00  0.00    -0.377 OA
BRANCH  14  15
ATOM     15  C   UNL     1      31.279  20.815  -4.322  1.00  0.00     0.165 C
ATOM     16  G   UNL     1      32.127  22.036  -4.670  1.00  0.00     0.000 C
ENDBRANCH  14  15
ENDBRANCH  13  14
ENDBRANCH  10  13
ENDBRANCH   9  10
ENDBRANCH   8   9
ENDBRANCH   7   8
ENDBRANCH   1   7
BRANCH   6  17
ATOM     17  O   UNL     1      27.624  15.690  -4.980  1.00  0.00    -0.492 OA
BRANCH  17  18
ATOM     18  C   UNL     1      27.031  16.414  -6.067  1.00  0.00     0.245 C
BRANCH  18  19
ATOM     19  C   UNL     1      27.175  17.943  -5.880  1.00  0.00     0.126 C
BRANCH  19  20
ATOM     20  N   UNL     1      27.547  18.770  -7.035  1.00  0.00    -0.300 NA
ATOM     21  C   UNL     1      26.532  18.933  -8.072  1.00  0.00     0.085 C
ATOM     22  C   UNL     1      28.121  20.078  -6.709  1.00  0.00     0.090 C
ATOM     23  C   UNL     1      26.968  20.199  -8.795  1.00  0.00     0.023 C
ATOM     24  C   UNL     1      27.429  21.075  -7.640  1.00  0.00     0.030 C
ATOM     25  G   UNL     1      28.312  22.247  -8.065  1.00  0.00     0.000 C
ENDBRANCH  19  20
ENDBRANCH  18  19
ENDBRANCH  17  18
ENDBRANCH   6  17
BRANCH   3  26
ATOM     26  N   UNL     1      28.225  10.122  -5.306  1.00  0.00    -0.324 N
ATOM     27  H   UNL     1      27.402   9.603  -5.568  1.00  0.00     0.170 HD
BRANCH  26  28
ATOM     28  C   UNL     1      29.263   9.249  -4.995  1.00  0.00     0.227 A
ATOM     29  N   UNL     1      29.032   7.954  -5.262  1.00  0.00    -0.221 NA
ATOM     30  N   UNL     1      30.373   9.686  -4.392  1.00  0.00    -0.212 NA
ATOM     31  C   UNL     1      29.989   7.076  -4.909  1.00  0.00     0.117 A
ATOM     32  C   UNL     1      31.300   8.777  -4.030  1.00  0.00     0.086 A
ATOM     33  C   UNL     1      31.151   7.431  -4.275  1.00  0.00     0.050 A
BRANCH  32  34
ATOM     34  C   UNL     1      32.454   9.310  -3.293  1.00  0.00     0.053 A
ATOM     35  C   UNL     1      33.265   8.686  -2.362  1.00  0.00     0.022 A
ATOM     36  S   UNL     1      32.955  10.934  -3.536  1.00  0.00    -0.136 S
ATOM     37  C   UNL     1      34.246   9.561  -1.808  1.00  0.00     0.018 A
ATOM     38  C   UNL     1      34.174  10.831  -2.340  1.00  0.00     0.031 A
BRANCH  38  39
ATOM     39  C   UNL     1      34.988  12.038  -1.995  1.00  0.00     0.207 C
BRANCH  39  40
ATOM     40  O   UNL     1      34.791  12.983  -3.045  1.00  0.00    -0.372 OA
BRANCH  40  41
ATOM     41  C   UNL     1      34.916  14.341  -2.629  1.00  0.00     0.188 C
ATOM     42  G   UNL     1      33.684  15.108  -2.997  1.00  0.00     0.000 C
ENDBRANCH  40  41
ENDBRANCH  39  40
ENDBRANCH  38  39
ENDBRANCH  32  34
ENDBRANCH  26  28
ENDBRANCH   3  26
TORSDOF 0
ENDMDL
