MODEL 1
REMARK VINA RESULT:      -7.6      0.000      0.000
REMARK SMILES C1=C2/COCc3ccc(s3)-c3ccnc(n3)Nc3ccc(c(c3)COC/1)OCCN1CCC[C@@H]1COC2
REMARK SMILES IDX 18 1 19 2 20 3 21 4 22 5 23 6 24 7 25 8 26 9 1 10 2 11 37 13
REMARK SMILES IDX 36 14 35 15 27 17 28 18 29 19 30 20 31 21 34 22 32 23 33 24
REMARK SMILES IDX 17 26 15 28 14 29 16 30 13 31 11 32 12 33 9 34 8 35 10 36
REMARK SMILES IDX 7 37 6 38 5 39 4 40 3 41
REMARK H PARENT 17 27
REMARK Flexibility Score:   91.800
ROOT
ATOM      1  C   UNL     1      33.336  13.194  -3.387  1.00  0.00     0.042 A
ATOM      2  C   UNL     1      34.042  14.258  -2.820  1.00  0.00     0.030 A
ATOM      3  C   UNL     1      33.822  15.580  -3.234  1.00  0.00     0.049 A
ATOM      4  C   UNL     1      32.899  15.865  -4.243  1.00  0.00     0.125 A
ATOM      5  C   UNL     1      32.123  14.825  -4.774  1.00  0.00     0.022 A
ATOM      6  C   UNL     1      32.369  13.504  -4.350  1.00  0.00     0.036 A
ENDROOT
BRANCH   5   7
ATOM      7  C   UNL     1      31.016  15.066  -5.773  1.00  0.00     0.200 C
BRANCH   7   8
ATOM      8  O   UNL     1      30.256  13.870  -5.929  1.00  0.00    -0.373 OA
BRANCH   8   9
ATOM      9  C   UNL     1      28.966  13.983  -5.353  1.00  0.00     0.188 C
BRANCH   9  10
ATOM     10  C   UNL     1      27.882  14.028  -6.392  1.00  0.00     0.005 C
ATOM     11  C   UNL     1      26.741  14.752  -6.423  1.00  0.00    -0.021 C
ATOM     12  G   UNL     1      25.765  14.569  -7.559  1.00  0.00     0.000 C
BRANCH  11  13
ATOM     13  C   UNL     1      26.311  15.718  -5.351  1.00  0.00     0.193 C
BRANCH  13  14
ATOM     14  O   UNL     1      26.257  17.020  -5.926  1.00  0.00    -0.375 OA
BRANCH  14  15
ATOM     15  C   UNL     1      27.501  17.731  -5.884  1.00  0.00     0.179 C
ATOM     16  G   UNL     1      28.267  17.582  -4.548  1.00  0.00     0.000 C
ENDBRANCH  14  15
ENDBRANCH  13  14
ENDBRANCH  11  13
ENDBRANCH   9  10
ENDBRANCH   8   9
ENDBRANCH   7   8
ENDBRANCH   5   7
BRANCH   4  17
ATOM     17  O   UNL     1      32.662  17.120  -4.727  1.00  0.00    -0.492 OA
BRANCH  17  18
ATOM     18  C   UNL     1      33.638  17.699  -5.599  1.00  0.00     0.245 C
BRANCH  18  19
ATOM     19  C   UNL     1      33.007  18.557  -6.722  1.00  0.00     0.126 C
BRANCH  19  20
ATOM     20  N   UNL     1      32.325  19.820  -6.402  1.00  0.00    -0.295 NA
ATOM     21  C   UNL     1      30.888  19.728  -6.180  1.00  0.00     0.085 C
ATOM     22  C   UNL     1      32.926  20.585  -5.291  1.00  0.00     0.082 C
ATOM     23  C   UNL     1      30.571  21.080  -5.582  1.00  0.00     0.017 C
ATOM     24  C   UNL     1      31.732  21.297  -4.629  1.00  0.00     0.023 C
ATOM     25  G   UNL     1      33.981  21.597  -5.798  1.00  0.00     0.000 C
ENDBRANCH  19  20
ENDBRANCH  18  19
ENDBRANCH  17  18
ENDBRANCH   4  17
BRANCH   1  26
ATOM     26  N   UNL     1      33.662  11.881  -3.033  1.00  0.00    -0.324 N
ATOM     27  H   UNL     1      34.563  11.709  -2.617  1.00  0.00     0.170 HD
BRANCH  26  28
ATOM     28  C   UNL     1      32.937  10.698  -3.147  1.00  0.00     0.227 A
ATOM     29  N   UNL     1      33.485   9.604  -2.591  1.00  0.00    -0.221 NA
ATOM     30  N   UNL     1      31.778  10.671  -3.813  1.00  0.00    -0.212 NA
ATOM     31  C   UNL     1      32.795   8.451  -2.697  1.00  0.00     0.117 A
ATOM     32  C   UNL     1      31.125   9.501  -3.908  1.00  0.00     0.086 A
ATOM     33  C   UNL     1      31.589   8.339  -3.344  1.00  0.00     0.050 A
BRANCH  32  34
ATOM     34  C   UNL     1      29.863   9.569  -4.639  1.00  0.00     0.053 A
ATOM     35  C   UNL     1      28.933  10.588  -4.685  1.00  0.00     0.022 A
ATOM     36  S   UNL     1      29.384   8.247  -5.619  1.00  0.00    -0.136 S
ATOM     37  C   UNL     1      27.854  10.297  -5.571  1.00  0.00     0.018 A
ATOM     38  C   UNL     1      27.981   9.058  -6.166  1.00  0.00     0.031 A
BRANCH  38  39
ATOM     39  C   UNL     1      27.071   8.405  -7.159  1.00  0.00     0.207 C
BRANCH  39  40
ATOM     40  O   UNL     1      27.005   7.013  -6.849  1.00  0.00    -0.372 OA
BRANCH  40  41
ATOM     41  C   UNL     1      25.694   6.456  -6.944  1.00  0.00     0.194 C
ATOM     42  G   UNL     1      24.691   7.243  -6.137  1.00  0.00     0.000 C
ENDBRANCH  40  41
ENDBRANCH  39  40
ENDBRANCH  38  39
ENDBRANCH  32  34
ENDBRANCH  26  28
ENDBRANCH   1  26
TORSDOF 0
ENDMDL
MODEL 2
REMARK VINA RESULT:      -7.5      2.752      4.531
REMARK SMILES C1=C2/COCc3ccc(s3)-c3ccnc(n3)Nc3ccc(c(c3)COC/1)OCCN1CCC[C@@H]1COC2
REMARK SMILES IDX 18 1 19 2 20 3 21 4 22 5 23 6 24 7 25 8 26 9 1 10 2 11 37 13
REMARK SMILES IDX 36 14 35 15 27 17 28 18 29 19 30 20 31 21 34 22 32 23 33 24
REMARK SMILES IDX 17 26 15 28 14 29 16 30 13 31 11 32 12 33 9 34 8 35 10 36
REMARK SMILES IDX 7 37 6 38 5 39 4 40 3 41
REMARK H PARENT 17 27
REMARK Flexibility Score:   91.800
ROOT
ATOM      1  C   UNL     1      31.706   8.715  -3.413  1.00  0.00     0.042 A
ATOM      2  C   UNL     1      32.886   8.886  -2.684  1.00  0.00     0.030 A
ATOM      3  C   UNL     1      33.576  10.107  -2.693  1.00  0.00     0.049 A
ATOM      4  C   UNL     1      33.108  11.183  -3.451  1.00  0.00     0.125 A
ATOM      5  C   UNL     1      31.888  11.062  -4.131  1.00  0.00     0.022 A
ATOM      6  C   UNL     1      31.218   9.823  -4.116  1.00  0.00     0.036 A
ENDROOT
BRANCH   5   7
ATOM      7  C   UNL     1      31.251  12.217  -4.866  1.00  0.00     0.200 C
BRANCH   7   8
ATOM      8  O   UNL     1      29.921  11.860  -5.236  1.00  0.00    -0.373 OA
BRANCH   8   9
ATOM      9  C   UNL     1      28.966  12.779  -4.734  1.00  0.00     0.188 C
BRANCH   9  10
ATOM     10  C   UNL     1      27.756  12.882  -5.619  1.00  0.00     0.005 C
ATOM     11  C   UNL     1      26.798  13.834  -5.673  1.00  0.00    -0.021 C
ATOM     12  G   UNL     1      25.630  13.674  -6.614  1.00  0.00     0.000 C
BRANCH  11  13
ATOM     13  C   UNL     1      26.760  15.058  -4.797  1.00  0.00     0.193 C
BRANCH  13  14
ATOM     14  O   UNL     1      26.353  16.162  -5.600  1.00  0.00    -0.375 OA
BRANCH  14  15
ATOM     15  C   UNL     1      27.427  16.807  -6.298  1.00  0.00     0.179 C
ATOM     16  G   UNL     1      27.828  18.179  -5.705  1.00  0.00     0.000 C
ENDBRANCH  14  15
ENDBRANCH  13  14
ENDBRANCH  11  13
ENDBRANCH   9  10
ENDBRANCH   8   9
ENDBRANCH   7   8
ENDBRANCH   5   7
BRANCH   4  17
ATOM     17  O   UNL     1      33.748  12.386  -3.543  1.00  0.00    -0.492 OA
BRANCH  17  18
ATOM     18  C   UNL     1      33.551  13.334  -2.489  1.00  0.00     0.245 C
BRANCH  18  19
ATOM     19  C   UNL     1      33.793  14.794  -2.941  1.00  0.00     0.126 C
BRANCH  19  20
ATOM     20  N   UNL     1      32.670  15.738  -3.047  1.00  0.00    -0.295 NA
ATOM     21  C   UNL     1      32.557  16.451  -4.313  1.00  0.00     0.085 C
ATOM     22  C   UNL     1      31.349  15.172  -2.706  1.00  0.00     0.082 C
ATOM     23  C   UNL     1      31.178  17.064  -4.211  1.00  0.00     0.017 C
ATOM     24  C   UNL     1      30.362  15.936  -3.607  1.00  0.00     0.023 C
ATOM     25  G   UNL     1      31.016  15.364  -1.207  1.00  0.00     0.000 C
ENDBRANCH  19  20
ENDBRANCH  18  19
ENDBRANCH  17  18
ENDBRANCH   4  17
BRANCH   1  26
ATOM     26  N   UNL     1      31.108   7.453  -3.474  1.00  0.00    -0.324 N
ATOM     27  H   UNL     1      31.317   6.790  -2.745  1.00  0.00     0.170 HD
BRANCH  26  28
ATOM     28  C   UNL     1      30.223   6.905  -4.400  1.00  0.00     0.227 A
ATOM     29  N   UNL     1      29.877   5.621  -4.210  1.00  0.00    -0.221 NA
ATOM     30  N   UNL     1      29.787   7.631  -5.435  1.00  0.00    -0.212 NA
ATOM     31  C   UNL     1      29.023   5.079  -5.101  1.00  0.00     0.117 A
ATOM     32  C   UNL     1      28.947   7.051  -6.309  1.00  0.00     0.086 A
ATOM     33  C   UNL     1      28.511   5.756  -6.179  1.00  0.00     0.050 A
BRANCH  32  34
ATOM     34  C   UNL     1      28.511   7.921  -7.398  1.00  0.00     0.053 A
ATOM     35  C   UNL     1      28.985   8.007  -8.691  1.00  0.00     0.022 A
ATOM     36  S   UNL     1      27.225   9.022  -7.133  1.00  0.00    -0.136 S
ATOM     37  C   UNL     1      28.249   8.942  -9.476  1.00  0.00     0.018 A
ATOM     38  C   UNL     1      27.243   9.557  -8.758  1.00  0.00     0.031 A
BRANCH  38  39
ATOM     39  C   UNL     1      26.252  10.577  -9.228  1.00  0.00     0.207 C
BRANCH  39  40
ATOM     40  O   UNL     1      26.892  11.853  -9.212  1.00  0.00    -0.372 OA
BRANCH  40  41
ATOM     41  C   UNL     1      26.670  12.629 -10.390  1.00  0.00     0.194 C
ATOM     42  G   UNL     1      27.463  13.912 -10.373  1.00  0.00     0.000 C
ENDBRANCH  40  41
ENDBRANCH  39  40
ENDBRANCH  38  39
ENDBRANCH  32  34
ENDBRANCH  26  28
ENDBRANCH   1  26
TORSDOF 0
ENDMDL
MODEL 3
REMARK VINA RESULT:      -7.5      2.656      8.963
REMARK SMILES C1=C2/COCc3ccc(s3)-c3ccnc(n3)Nc3ccc(c(c3)COC/1)OCCN1CCC[C@@H]1COC2
REMARK SMILES IDX 18 1 19 2 20 3 21 4 22 5 23 6 24 7 25 8 26 9 1 10 2 11 37 13
REMARK SMILES IDX 36 14 35 15 27 17 28 18 29 19 30 20 31 21 34 22 32 23 33 24
REMARK SMILES IDX 17 26 15 28 14 29 16 30 13 31 11 32 12 33 9 34 8 35 10 36
REMARK SMILES IDX 7 37 6 38 5 39 4 40 3 41
REMARK H PARENT 17 27
REMARK Flexibility Score:   91.800
ROOT
ATOM      1  C   UNL     1      31.213   8.738  -3.812  1.00  0.00     0.042 A
ATOM      2  C   UNL     1      30.703   7.705  -4.604  1.00  0.00     0.030 A
ATOM      3  C   UNL     1      29.556   7.889  -5.389  1.00  0.00     0.049 A
ATOM      4  C   UNL     1      28.879   9.111  -5.384  1.00  0.00     0.125 A
ATOM      5  C   UNL     1      29.412  10.185  -4.659  1.00  0.00     0.022 A
ATOM      6  C   UNL     1      30.560   9.974  -3.870  1.00  0.00     0.036 A
ENDROOT
BRANCH   5   7
ATOM      7  C   UNL     1      28.814  11.572  -4.705  1.00  0.00     0.200 C
BRANCH   7   8
ATOM      8  O   UNL     1      29.821  12.503  -5.094  1.00  0.00    -0.373 OA
BRANCH   8   9
ATOM      9  C   UNL     1      29.292  13.561  -5.875  1.00  0.00     0.188 C
BRANCH   9  10
ATOM     10  C   UNL     1      29.378  14.885  -5.171  1.00  0.00     0.005 C
ATOM     11  C   UNL     1      28.567  15.964  -5.248  1.00  0.00    -0.021 C
ATOM     12  G   UNL     1      28.908  17.218  -4.484  1.00  0.00     0.000 C
BRANCH  11  13
ATOM     13  C   UNL     1      27.336  16.047  -6.111  1.00  0.00     0.193 C
BRANCH  13  14
ATOM     14  O   UNL     1      26.197  16.069  -5.255  1.00  0.00    -0.375 OA
BRANCH  14  15
ATOM     15  C   UNL     1      25.844  14.789  -4.716  1.00  0.00     0.179 C
ATOM     16  G   UNL     1      25.589  13.702  -5.788  1.00  0.00     0.000 C
ENDBRANCH  14  15
ENDBRANCH  13  14
ENDBRANCH  11  13
ENDBRANCH   9  10
ENDBRANCH   8   9
ENDBRANCH   7   8
ENDBRANCH   5   7
BRANCH   4  17
ATOM     17  O   UNL     1      27.733   9.351  -6.088  1.00  0.00    -0.492 OA
BRANCH  17  18
ATOM     18  C   UNL     1      26.707   8.353  -6.062  1.00  0.00     0.245 C
BRANCH  18  19
ATOM     19  C   UNL     1      26.375   7.795  -7.466  1.00  0.00     0.126 C
BRANCH  19  20
ATOM     20  N   UNL     1      26.740   6.416  -7.826  1.00  0.00    -0.295 NA
ATOM     21  C   UNL     1      28.127   6.207  -8.220  1.00  0.00     0.085 C
ATOM     22  C   UNL     1      26.378   5.396  -6.821  1.00  0.00     0.082 C
ATOM     23  C   UNL     1      28.238   4.699  -8.210  1.00  0.00     0.017 C
ATOM     24  C   UNL     1      27.475   4.324  -6.953  1.00  0.00     0.023 C
ATOM     25  G   UNL     1      24.972   4.806  -7.086  1.00  0.00     0.000 C
ENDBRANCH  19  20
ENDBRANCH  18  19
ENDBRANCH  17  18
ENDBRANCH   4  17
BRANCH   1  26
ATOM     26  N   UNL     1      32.288   8.486  -2.955  1.00  0.00    -0.324 N
ATOM     27  H   UNL     1      32.413   7.548  -2.608  1.00  0.00     0.170 HD
BRANCH  26  28
ATOM     28  C   UNL     1      33.282   9.329  -2.464  1.00  0.00     0.227 A
ATOM     29  N   UNL     1      34.200   8.767  -1.661  1.00  0.00    -0.221 NA
ATOM     30  N   UNL     1      33.276  10.632  -2.761  1.00  0.00    -0.212 NA
ATOM     31  C   UNL     1      35.166   9.574  -1.176  1.00  0.00     0.117 A
ATOM     32  C   UNL     1      34.247  11.406  -2.249  1.00  0.00     0.086 A
ATOM     33  C   UNL     1      35.247  10.917  -1.447  1.00  0.00     0.050 A
BRANCH  32  34
ATOM     34  C   UNL     1      34.170  12.812  -2.638  1.00  0.00     0.053 A
ATOM     35  C   UNL     1      35.126  13.801  -2.535  1.00  0.00     0.022 A
ATOM     36  S   UNL     1      32.728  13.414  -3.342  1.00  0.00    -0.136 S
ATOM     37  C   UNL     1      34.686  15.040  -3.088  1.00  0.00     0.018 A
ATOM     38  C   UNL     1      33.400  14.968  -3.584  1.00  0.00     0.031 A
BRANCH  38  39
ATOM     39  C   UNL     1      32.597  16.041  -4.251  1.00  0.00     0.207 C
BRANCH  39  40
ATOM     40  O   UNL     1      32.607  15.792  -5.656  1.00  0.00    -0.372 OA
BRANCH  40  41
ATOM     41  C   UNL     1      32.502  16.969  -6.457  1.00  0.00     0.194 C
ATOM     42  G   UNL     1      33.856  17.541  -6.794  1.00  0.00     0.000 C
ENDBRANCH  40  41
ENDBRANCH  39  40
ENDBRANCH  38  39
ENDBRANCH  32  34
ENDBRANCH  26  28
ENDBRANCH   1  26
TORSDOF 0
ENDMDL
MODEL 4
REMARK VINA RESULT:      -7.4      1.301      2.064
REMARK SMILES C1=C2/COCc3ccc(s3)-c3ccnc(n3)Nc3ccc(c(c3)COC/1)OCCN1CCC[C@@H]1COC2
REMARK SMILES IDX 18 1 19 2 20 3 21 4 22 5 23 6 24 7 25 8 26 9 1 10 2 11 37 13
REMARK SMILES IDX 36 14 35 15 27 17 28 18 29 19 30 20 31 21 34 22 32 23 33 24
REMARK SMILES IDX 17 26 15 28 14 29 16 30 13 31 11 32 12 33 9 34 8 35 10 36
REMARK SMILES IDX 7 37 6 38 5 39 4 40 3 41
REMARK H PARENT 17 27
REMARK Flexibility Score:   91.800
ROOT
ATOM      1  C   UNL     1      33.263  13.645  -3.388  1.00  0.00     0.042 A
ATOM      2  C   UNL     1      33.662  14.957  -3.116  1.00  0.00     0.030 A
ATOM      3  C   UNL     1      33.020  16.051  -3.713  1.00  0.00     0.049 A
ATOM      4  C   UNL     1      31.972  15.855  -4.616  1.00  0.00     0.125 A
ATOM      5  C   UNL     1      31.503  14.554  -4.848  1.00  0.00     0.022 A
ATOM      6  C   UNL     1      32.170  13.470  -4.244  1.00  0.00     0.036 A
ENDROOT
BRANCH   5   7
ATOM      7  C   UNL     1      30.294  14.268  -5.707  1.00  0.00     0.200 C
BRANCH   7   8
ATOM      8  O   UNL     1      29.288  13.649  -4.909  1.00  0.00    -0.373 OA
BRANCH   8   9
ATOM      9  C   UNL     1      28.044  14.320  -5.011  1.00  0.00     0.188 C
BRANCH   9  10
ATOM     10  C   UNL     1      28.192  15.812  -4.911  1.00  0.00     0.005 C
ATOM     11  C   UNL     1      27.610  16.792  -5.637  1.00  0.00    -0.021 C
ATOM     12  G   UNL     1      27.978  18.233  -5.387  1.00  0.00     0.000 C
BRANCH  11  13
ATOM     13  C   UNL     1      26.633  16.559  -6.760  1.00  0.00     0.193 C
BRANCH  13  14
ATOM     14  O   UNL     1      27.275  16.912  -7.982  1.00  0.00    -0.375 OA
BRANCH  14  15
ATOM     15  C   UNL     1      27.899  15.810  -8.655  1.00  0.00     0.179 C
ATOM     16  G   UNL     1      26.994  15.118  -9.702  1.00  0.00     0.000 C
ENDBRANCH  14  15
ENDBRANCH  13  14
ENDBRANCH  11  13
ENDBRANCH   9  10
ENDBRANCH   8   9
ENDBRANCH   7   8
ENDBRANCH   5   7
BRANCH   4  17
ATOM     17  O   UNL     1      31.328  16.867  -5.268  1.00  0.00    -0.492 OA
BRANCH  17  18
ATOM     18  C   UNL     1      31.802  17.239  -6.566  1.00  0.00     0.245 C
BRANCH  18  19
ATOM     19  C   UNL     1      32.903  18.326  -6.516  1.00  0.00     0.126 C
BRANCH  19  20
ATOM     20  N   UNL     1      32.543  19.752  -6.492  1.00  0.00    -0.295 NA
ATOM     21  C   UNL     1      31.156  20.051  -6.162  1.00  0.00     0.085 C
ATOM     22  C   UNL     1      33.418  20.598  -5.656  1.00  0.00     0.082 C
ATOM     23  C   UNL     1      31.201  21.543  -5.917  1.00  0.00     0.017 C
ATOM     24  C   UNL     1      32.487  21.705  -5.128  1.00  0.00     0.023 C
ATOM     25  G   UNL     1      34.593  21.187  -6.474  1.00  0.00     0.000 C
ENDBRANCH  19  20
ENDBRANCH  18  19
ENDBRANCH  17  18
ENDBRANCH   4  17
BRANCH   1  26
ATOM     26  N   UNL     1      33.998  12.577  -2.866  1.00  0.00    -0.324 N
ATOM     27  H   UNL     1      34.910  12.767  -2.483  1.00  0.00     0.170 HD
BRANCH  26  28
ATOM     28  C   UNL     1      33.692  11.222  -2.762  1.00  0.00     0.227 A
ATOM     29  N   UNL     1      34.502  10.483  -1.986  1.00  0.00    -0.221 NA
ATOM     30  N   UNL     1      32.663  10.703  -3.440  1.00  0.00    -0.212 NA
ATOM     31  C   UNL     1      34.219   9.170  -1.880  1.00  0.00     0.117 A
ATOM     32  C   UNL     1      32.420   9.388  -3.319  1.00  0.00     0.086 A
ATOM     33  C   UNL     1      33.171   8.559  -2.523  1.00  0.00     0.050 A
BRANCH  32  34
ATOM     34  C   UNL     1      31.270   8.912  -4.082  1.00  0.00     0.053 A
ATOM     35  C   UNL     1      30.886   7.618  -4.369  1.00  0.00     0.022 A
ATOM     36  S   UNL     1      30.173  10.047  -4.751  1.00  0.00    -0.136 S
ATOM     37  C   UNL     1      29.659   7.564  -5.093  1.00  0.00     0.018 A
ATOM     38  C   UNL     1      29.145   8.819  -5.353  1.00  0.00     0.031 A
BRANCH  38  39
ATOM     39  C   UNL     1      27.880   9.178  -6.067  1.00  0.00     0.207 C
BRANCH  39  40
ATOM     40  O   UNL     1      27.300   7.975  -6.570  1.00  0.00    -0.372 OA
BRANCH  40  41
ATOM     41  C   UNL     1      26.413   8.172  -7.672  1.00  0.00     0.194 C
ATOM     42  G   UNL     1      26.902   9.258  -8.597  1.00  0.00     0.000 C
ENDBRANCH  40  41
ENDBRANCH  39  40
ENDBRANCH  38  39
ENDBRANCH  32  34
ENDBRANCH  26  28
ENDBRANCH   1  26
TORSDOF 0
ENDMDL
MODEL 5
REMARK VINA RESULT:      -7.3      2.365      8.054
REMARK SMILES C1=C2/COCc3ccc(s3)-c3ccnc(n3)Nc3ccc(c(c3)COC/1)OCCN1CCC[C@@H]1COC2
REMARK SMILES IDX 18 1 19 2 20 3 21 4 22 5 23 6 24 7 25 8 26 9 1 10 2 11 37 13
REMARK SMILES IDX 36 14 35 15 27 17 28 18 29 19 30 20 31 21 34 22 32 23 33 24
REMARK SMILES IDX 17 26 15 28 14 29 16 30 13 31 11 32 12 33 9 34 8 35 10 36
REMARK SMILES IDX 7 37 6 38 5 39 4 40 3 41
REMARK H PARENT 17 27
REMARK Flexibility Score:   91.800
ROOT
ATOM      1  C   UNL     1      30.953   8.038  -3.965  1.00  0.00     0.042 A
ATOM      2  C   UNL     1      30.619   6.833  -4.589  1.00  0.00     0.030 A
ATOM      3  C   UNL     1      29.560   6.756  -5.504  1.00  0.00     0.049 A
ATOM      4  C   UNL     1      28.795   7.886  -5.803  1.00  0.00     0.125 A
ATOM      5  C   UNL     1      29.155   9.122  -5.249  1.00  0.00     0.022 A
ATOM      6  C   UNL     1      30.217   9.173  -4.324  1.00  0.00     0.036 A
ENDROOT
BRANCH   5   7
ATOM      7  C   UNL     1      28.461  10.412  -5.620  1.00  0.00     0.200 C
BRANCH   7   8
ATOM      8  O   UNL     1      28.704  11.383  -4.606  1.00  0.00    -0.373 OA
BRANCH   8   9
ATOM      9  C   UNL     1      28.595  12.707  -5.102  1.00  0.00     0.188 C
BRANCH   9  10
ATOM     10  C   UNL     1      27.355  12.905  -5.926  1.00  0.00     0.005 C
ATOM     11  C   UNL     1      26.438  13.897  -5.889  1.00  0.00    -0.021 C
ATOM     12  G   UNL     1      25.226  13.835  -6.785  1.00  0.00     0.000 C
BRANCH  11  13
ATOM     13  C   UNL     1      26.489  15.073  -4.950  1.00  0.00     0.193 C
BRANCH  13  14
ATOM     14  O   UNL     1      25.956  16.205  -5.633  1.00  0.00    -0.375 OA
BRANCH  14  15
ATOM     15  C   UNL     1      26.906  17.256  -5.855  1.00  0.00     0.179 C
ATOM     16  G   UNL     1      26.423  18.343  -6.845  1.00  0.00     0.000 C
ENDBRANCH  14  15
ENDBRANCH  13  14
ENDBRANCH  11  13
ENDBRANCH   9  10
ENDBRANCH   8   9
ENDBRANCH   7   8
ENDBRANCH   5   7
BRANCH   4  17
ATOM     17  O   UNL     1      27.723   7.880  -6.650  1.00  0.00    -0.492 OA
BRANCH  17  18
ATOM     18  C   UNL     1      27.844   7.160  -7.881  1.00  0.00     0.245 C
BRANCH  18  19
ATOM     19  C   UNL     1      26.624   7.352  -8.812  1.00  0.00     0.126 C
BRANCH  19  20
ATOM     20  N   UNL     1      26.258   8.692  -9.296  1.00  0.00    -0.295 NA
ATOM     21  C   UNL     1      25.103   9.306  -8.653  1.00  0.00     0.085 C
ATOM     22  C   UNL     1      27.364   9.670  -9.309  1.00  0.00     0.082 C
ATOM     23  C   UNL     1      25.195  10.738  -9.133  1.00  0.00     0.017 C
ATOM     24  C   UNL     1      26.682  11.022  -9.030  1.00  0.00     0.023 C
ATOM     25  G   UNL     1      28.104   9.677 -10.669  1.00  0.00     0.000 C
ENDBRANCH  19  20
ENDBRANCH  18  19
ENDBRANCH  17  18
ENDBRANCH   4  17
BRANCH   1  26
ATOM     26  N   UNL     1      31.938   8.054  -2.973  1.00  0.00    -0.324 N
ATOM     27  H   UNL     1      32.002   7.264  -2.351  1.00  0.00     0.170 HD
BRANCH  26  28
ATOM     28  C   UNL     1      32.909   9.004  -2.665  1.00  0.00     0.227 A
ATOM     29  N   UNL     1      33.987   8.563  -1.996  1.00  0.00    -0.221 NA
ATOM     30  N   UNL     1      32.733  10.287  -2.996  1.00  0.00    -0.212 NA
ATOM     31  C   UNL     1      34.932   9.473  -1.689  1.00  0.00     0.117 A
ATOM     32  C   UNL     1      33.692  11.167  -2.662  1.00  0.00     0.086 A
ATOM     33  C   UNL     1      34.843  10.805  -2.008  1.00  0.00     0.050 A
BRANCH  32  34
ATOM     34  C   UNL     1      33.423  12.542  -3.075  1.00  0.00     0.053 A
ATOM     35  C   UNL     1      33.911  13.722  -2.554  1.00  0.00     0.022 A
ATOM     36  S   UNL     1      32.371  12.834  -4.396  1.00  0.00    -0.136 S
ATOM     37  C   UNL     1      33.458  14.863  -3.280  1.00  0.00     0.018 A
ATOM     38  C   UNL     1      32.625  14.524  -4.327  1.00  0.00     0.031 A
BRANCH  38  39
ATOM     39  C   UNL     1      31.965  15.428  -5.322  1.00  0.00     0.207 C
BRANCH  39  40
ATOM     40  O   UNL     1      31.793  16.706  -4.711  1.00  0.00    -0.372 OA
BRANCH  40  41
ATOM     41  C   UNL     1      32.441  17.774  -5.403  1.00  0.00     0.194 C
ATOM     42  G   UNL     1      31.883  19.118  -5.008  1.00  0.00     0.000 C
ENDBRANCH  40  41
ENDBRANCH  39  40
ENDBRANCH  38  39
ENDBRANCH  32  34
ENDBRANCH  26  28
ENDBRANCH   1  26
TORSDOF 0
ENDMDL
MODEL 6
REMARK VINA RESULT:      -7.3      2.686      7.753
REMARK SMILES C1=C2/COCc3ccc(s3)-c3ccnc(n3)Nc3ccc(c(c3)COC/1)OCCN1CCC[C@@H]1COC2
REMARK SMILES IDX 18 1 19 2 20 3 21 4 22 5 23 6 24 7 25 8 26 9 1 10 2 11 37 13
REMARK SMILES IDX 36 14 35 15 27 17 28 18 29 19 30 20 31 21 34 22 32 23 33 24
REMARK SMILES IDX 17 26 15 28 14 29 16 30 13 31 11 32 12 33 9 34 8 35 10 36
REMARK SMILES IDX 7 37 6 38 5 39 4 40 3 41
REMARK H PARENT 17 27
REMARK Flexibility Score:   91.800
ROOT
ATOM      1  C   UNL     1      30.752   8.767  -4.085  1.00  0.00     0.042 A
ATOM      2  C   UNL     1      30.361   7.752  -4.961  1.00  0.00     0.030 A
ATOM      3  C   UNL     1      29.299   7.935  -5.858  1.00  0.00     0.049 A
ATOM      4  C   UNL     1      28.589   9.138  -5.885  1.00  0.00     0.125 A
ATOM      5  C   UNL     1      29.009  10.198  -5.069  1.00  0.00     0.022 A
ATOM      6  C   UNL     1      30.072   9.988  -4.169  1.00  0.00     0.036 A
ENDROOT
BRANCH   5   7
ATOM      7  C   UNL     1      28.378  11.569  -5.131  1.00  0.00     0.200 C
BRANCH   7   8
ATOM      8  O   UNL     1      29.322  12.540  -4.686  1.00  0.00    -0.373 OA
BRANCH   8   9
ATOM      9  C   UNL     1      28.691  13.720  -4.221  1.00  0.00     0.188 C
BRANCH   9  10
ATOM     10  C   UNL     1      27.662  14.234  -5.189  1.00  0.00     0.005 C
ATOM     11  C   UNL     1      27.708  15.298  -6.021  1.00  0.00    -0.021 C
ATOM     12  G   UNL     1      26.504  15.653  -6.857  1.00  0.00     0.000 C
BRANCH  11  13
ATOM     13  C   UNL     1      28.880  16.236  -6.144  1.00  0.00     0.193 C
BRANCH  13  14
ATOM     14  O   UNL     1      29.019  16.933  -4.910  1.00  0.00    -0.375 OA
BRANCH  14  15
ATOM     15  C   UNL     1      28.709  18.331  -4.988  1.00  0.00     0.179 C
ATOM     16  G   UNL     1      28.802  18.918  -6.417  1.00  0.00     0.000 C
ENDBRANCH  14  15
ENDBRANCH  13  14
ENDBRANCH  11  13
ENDBRANCH   9  10
ENDBRANCH   8   9
ENDBRANCH   7   8
ENDBRANCH   5   7
BRANCH   4  17
ATOM     17  O   UNL     1      27.518   9.374  -6.699  1.00  0.00    -0.492 OA
BRANCH  17  18
ATOM     18  C   UNL     1      27.612   8.965  -8.067  1.00  0.00     0.245 C
BRANCH  18  19
ATOM     19  C   UNL     1      26.563   9.654  -8.974  1.00  0.00     0.126 C
BRANCH  19  20
ATOM     20  N   UNL     1      26.975  10.318 -10.220  1.00  0.00    -0.295 NA
ATOM     21  C   UNL     1      27.007  11.775 -10.182  1.00  0.00     0.085 C
ATOM     22  C   UNL     1      28.249   9.834 -10.789  1.00  0.00     0.082 C
ATOM     23  C   UNL     1      27.749  12.110 -11.457  1.00  0.00     0.017 C
ATOM     24  C   UNL     1      28.856  11.072 -11.474  1.00  0.00     0.023 C
ATOM     25  G   UNL     1      28.022   8.682 -11.797  1.00  0.00     0.000 C
ENDBRANCH  19  20
ENDBRANCH  18  19
ENDBRANCH  17  18
ENDBRANCH   4  17
BRANCH   1  26
ATOM     26  N   UNL     1      31.737   8.511  -3.126  1.00  0.00    -0.324 N
ATOM     27  H   UNL     1      31.704   7.635  -2.630  1.00  0.00     0.170 HD
BRANCH  26  28
ATOM     28  C   UNL     1      32.822   9.277  -2.704  1.00  0.00     0.227 A
ATOM     29  N   UNL     1      33.786   8.628  -2.031  1.00  0.00    -0.221 NA
ATOM     30  N   UNL     1      32.856  10.593  -2.936  1.00  0.00    -0.212 NA
ATOM     31  C   UNL     1      34.840   9.358  -1.614  1.00  0.00     0.117 A
ATOM     32  C   UNL     1      33.917  11.289  -2.494  1.00  0.00     0.086 A
ATOM     33  C   UNL     1      34.967  10.708  -1.827  1.00  0.00     0.050 A
BRANCH  32  34
ATOM     34  C   UNL     1      33.877  12.715  -2.804  1.00  0.00     0.053 A
ATOM     35  C   UNL     1      34.855  13.674  -2.635  1.00  0.00     0.022 A
ATOM     36  S   UNL     1      32.459  13.390  -3.490  1.00  0.00    -0.136 S
ATOM     37  C   UNL     1      34.451  14.952  -3.123  1.00  0.00     0.018 A
ATOM     38  C   UNL     1      33.170  14.938  -3.637  1.00  0.00     0.031 A
BRANCH  38  39
ATOM     39  C   UNL     1      32.401  16.066  -4.252  1.00  0.00     0.207 C
BRANCH  39  40
ATOM     40  O   UNL     1      32.498  15.945  -5.671  1.00  0.00    -0.372 OA
BRANCH  40  41
ATOM     41  C   UNL     1      32.415  17.189  -6.368  1.00  0.00     0.194 C
ATOM     42  G   UNL     1      33.650  17.451  -7.194  1.00  0.00     0.000 C
ENDBRANCH  40  41
ENDBRANCH  39  40
ENDBRANCH  38  39
ENDBRANCH  32  34
ENDBRANCH  26  28
ENDBRANCH   1  26
TORSDOF 0
ENDMDL
MODEL 7
REMARK VINA RESULT:      -7.2      1.772      2.728
REMARK SMILES C1=C2/COCc3ccc(s3)-c3ccnc(n3)Nc3ccc(c(c3)COC/1)OCCN1CCC[C@@H]1COC2
REMARK SMILES IDX 18 1 19 2 20 3 21 4 22 5 23 6 24 7 25 8 26 9 1 10 2 11 37 13
REMARK SMILES IDX 36 14 35 15 27 17 28 18 29 19 30 20 31 21 34 22 32 23 33 24
REMARK SMILES IDX 17 26 15 28 14 29 16 30 13 31 11 32 12 33 9 34 8 35 10 36
REMARK SMILES IDX 7 37 6 38 5 39 4 40 3 41
REMARK H PARENT 17 27
REMARK Flexibility Score:   91.800
ROOT
ATOM      1  C   UNL     1      32.754  14.162  -3.605  1.00  0.00     0.042 A
ATOM      2  C   UNL     1      32.967  15.511  -3.306  1.00  0.00     0.030 A
ATOM      3  C   UNL     1      32.161  16.515  -3.862  1.00  0.00     0.049 A
ATOM      4  C   UNL     1      31.132  16.191  -4.749  1.00  0.00     0.125 A
ATOM      5  C   UNL     1      30.849  14.842  -5.006  1.00  0.00     0.022 A
ATOM      6  C   UNL     1      31.678  13.851  -4.444  1.00  0.00     0.036 A
ENDROOT
BRANCH   5   7
ATOM      7  C   UNL     1      29.674  14.406  -5.849  1.00  0.00     0.200 C
BRANCH   7   8
ATOM      8  O   UNL     1      28.487  15.016  -5.350  1.00  0.00    -0.373 OA
BRANCH   8   9
ATOM      9  C   UNL     1      27.552  14.057  -4.887  1.00  0.00     0.188 C
BRANCH   9  10
ATOM     10  C   UNL     1      26.267  14.094  -5.665  1.00  0.00     0.005 C
ATOM     11  C   UNL     1      25.949  13.514  -6.844  1.00  0.00    -0.021 C
ATOM     12  G   UNL     1      24.596  13.760  -7.463  1.00  0.00     0.000 C
BRANCH  11  13
ATOM     13  C   UNL     1      26.888  12.662  -7.657  1.00  0.00     0.193 C
BRANCH  13  14
ATOM     14  O   UNL     1      26.103  11.765  -8.439  1.00  0.00    -0.375 OA
BRANCH  14  15
ATOM     15  C   UNL     1      26.522  11.659  -9.805  1.00  0.00     0.179 C
ATOM     16  G   UNL     1      27.374  12.853 -10.298  1.00  0.00     0.000 C
ENDBRANCH  14  15
ENDBRANCH  13  14
ENDBRANCH  11  13
ENDBRANCH   9  10
ENDBRANCH   8   9
ENDBRANCH   7   8
ENDBRANCH   5   7
BRANCH   4  17
ATOM     17  O   UNL     1      30.334  17.115  -5.362  1.00  0.00    -0.492 OA
BRANCH  17  18
ATOM     18  C   UNL     1      30.890  17.870  -6.444  1.00  0.00     0.245 C
BRANCH  18  19
ATOM     19  C   UNL     1      30.728  19.397  -6.257  1.00  0.00     0.126 C
BRANCH  19  20
ATOM     20  N   UNL     1      31.895  20.288  -6.347  1.00  0.00    -0.295 NA
ATOM     21  C   UNL     1      31.659  21.682  -5.992  1.00  0.00     0.085 C
ATOM     22  C   UNL     1      33.094  19.815  -5.627  1.00  0.00     0.082 C
ATOM     23  C   UNL     1      33.066  22.225  -5.883  1.00  0.00     0.017 C
ATOM     24  C   UNL     1      33.795  21.105  -5.164  1.00  0.00     0.023 C
ATOM     25  G   UNL     1      34.011  18.967  -6.540  1.00  0.00     0.000 C
ENDBRANCH  19  20
ENDBRANCH  18  19
ENDBRANCH  17  18
ENDBRANCH   4  17
BRANCH   1  26
ATOM     26  N   UNL     1      33.646  13.199  -3.125  1.00  0.00    -0.324 N
ATOM     27  H   UNL     1      34.556  13.502  -2.819  1.00  0.00     0.170 HD
BRANCH  26  28
ATOM     28  C   UNL     1      33.509  11.821  -2.976  1.00  0.00     0.227 A
ATOM     29  N   UNL     1      34.453  11.201  -2.248  1.00  0.00    -0.221 NA
ATOM     30  N   UNL     1      32.504  11.169  -3.569  1.00  0.00    -0.212 NA
ATOM     31  C   UNL     1      34.333   9.866  -2.100  1.00  0.00     0.117 A
ATOM     32  C   UNL     1      32.425   9.838  -3.408  1.00  0.00     0.086 A
ATOM     33  C   UNL     1      33.322   9.122  -2.655  1.00  0.00     0.050 A
BRANCH  32  34
ATOM     34  C   UNL     1      31.288   9.213  -4.078  1.00  0.00     0.053 A
ATOM     35  C   UNL     1      31.039   7.876  -4.312  1.00  0.00     0.022 A
ATOM     36  S   UNL     1      30.024  10.196  -4.687  1.00  0.00    -0.136 S
ATOM     37  C   UNL     1      29.779   7.662  -4.946  1.00  0.00     0.018 A
ATOM     38  C   UNL     1      29.107   8.843  -5.191  1.00  0.00     0.031 A
BRANCH  38  39
ATOM     39  C   UNL     1      27.761   9.035  -5.820  1.00  0.00     0.207 C
BRANCH  39  40
ATOM     40  O   UNL     1      26.769   8.730  -4.840  1.00  0.00    -0.372 OA
BRANCH  40  41
ATOM     41  C   UNL     1      25.850   7.713  -5.240  1.00  0.00     0.194 C
ATOM     42  G   UNL     1      26.489   6.347  -5.234  1.00  0.00     0.000 C
ENDBRANCH  40  41
ENDBRANCH  39  40
ENDBRANCH  38  39
ENDBRANCH  32  34
ENDBRANCH  26  28
ENDBRANCH   1  26
TORSDOF 0
ENDMDL
MODEL 8
REMARK VINA RESULT:      -7.2      1.452      1.825
REMARK SMILES C1=C2/COCc3ccc(s3)-c3ccnc(n3)Nc3ccc(c(c3)COC/1)OCCN1CCC[C@@H]1COC2
REMARK SMILES IDX 18 1 19 2 20 3 21 4 22 5 23 6 24 7 25 8 26 9 1 10 2 11 37 13
REMARK SMILES IDX 36 14 35 15 27 17 28 18 29 19 30 20 31 21 34 22 32 23 33 24
REMARK SMILES IDX 17 26 15 28 14 29 16 30 13 31 11 32 12 33 9 34 8 35 10 36
REMARK SMILES IDX 7 37 6 38 5 39 4 40 3 41
REMARK H PARENT 17 27
REMARK Flexibility Score:   91.800
ROOT
ATOM      1  C   UNL     1      33.642  13.705  -2.856  1.00  0.00     0.042 A
ATOM      2  C   UNL     1      34.356  14.857  -3.196  1.00  0.00     0.030 A
ATOM      3  C   UNL     1      33.706  15.991  -3.704  1.00  0.00     0.049 A
ATOM      4  C   UNL     1      32.324  15.989  -3.903  1.00  0.00     0.125 A
ATOM      5  C   UNL     1      31.576  14.874  -3.501  1.00  0.00     0.022 A
ATOM      6  C   UNL     1      32.251  13.743  -3.001  1.00  0.00     0.036 A
ENDROOT
BRANCH   5   7
ATOM      7  C   UNL     1      30.067  14.843  -3.562  1.00  0.00     0.200 C
BRANCH   7   8
ATOM      8  O   UNL     1      29.646  13.605  -4.129  1.00  0.00    -0.373 OA
BRANCH   8   9
ATOM      9  C   UNL     1      28.986  13.786  -5.369  1.00  0.00     0.188 C
BRANCH   9  10
ATOM     10  C   UNL     1      27.498  13.607  -5.253  1.00  0.00     0.005 C
ATOM     11  C   UNL     1      26.501  14.507  -5.406  1.00  0.00    -0.021 C
ATOM     12  G   UNL     1      25.071  14.093  -5.167  1.00  0.00     0.000 C
BRANCH  11  13
ATOM     13  C   UNL     1      26.706  15.960  -5.745  1.00  0.00     0.193 C
BRANCH  13  14
ATOM     14  O   UNL     1      25.984  16.239  -6.941  1.00  0.00    -0.375 OA
BRANCH  14  15
ATOM     15  C   UNL     1      26.739  16.037  -8.143  1.00  0.00     0.179 C
ATOM     16  G   UNL     1      26.778  17.270  -9.077  1.00  0.00     0.000 C
ENDBRANCH  14  15
ENDBRANCH  13  14
ENDBRANCH  11  13
ENDBRANCH   9  10
ENDBRANCH   8   9
ENDBRANCH   7   8
ENDBRANCH   5   7
BRANCH   4  17
ATOM     17  O   UNL     1      31.628  17.039  -4.433  1.00  0.00    -0.492 OA
BRANCH  17  18
ATOM     18  C   UNL     1      31.494  17.105  -5.857  1.00  0.00     0.245 C
BRANCH  18  19
ATOM     19  C   UNL     1      32.381  18.203  -6.493  1.00  0.00     0.126 C
BRANCH  19  20
ATOM     20  N   UNL     1      32.002  19.620  -6.393  1.00  0.00    -0.295 NA
ATOM     21  C   UNL     1      30.576  19.888  -6.252  1.00  0.00     0.085 C
ATOM     22  C   UNL     1      32.728  20.385  -5.359  1.00  0.00     0.082 C
ATOM     23  C   UNL     1      30.563  21.350  -5.866  1.00  0.00     0.017 C
ATOM     24  C   UNL     1      31.712  21.438  -4.879  1.00  0.00     0.023 C
ATOM     25  G   UNL     1      34.005  21.047  -5.930  1.00  0.00     0.000 C
ENDBRANCH  19  20
ENDBRANCH  18  19
ENDBRANCH  17  18
ENDBRANCH   4  17
BRANCH   1  26
ATOM     26  N   UNL     1      34.334  12.555  -2.462  1.00  0.00    -0.324 N
ATOM     27  H   UNL     1      35.266  12.660  -2.097  1.00  0.00     0.170 HD
BRANCH  26  28
ATOM     28  C   UNL     1      33.957  11.214  -2.472  1.00  0.00     0.227 A
ATOM     29  N   UNL     1      34.730  10.369  -1.770  1.00  0.00    -0.221 NA
ATOM     30  N   UNL     1      32.899  10.810  -3.183  1.00  0.00    -0.212 NA
ATOM     31  C   UNL     1      34.378   9.068  -1.775  1.00  0.00     0.117 A
ATOM     32  C   UNL     1      32.586   9.504  -3.173  1.00  0.00     0.086 A
ATOM     33  C   UNL     1      33.296   8.571  -2.459  1.00  0.00     0.050 A
BRANCH  32  34
ATOM     34  C   UNL     1      31.409   9.156  -3.964  1.00  0.00     0.053 A
ATOM     35  C   UNL     1      30.531   9.983  -4.633  1.00  0.00     0.022 A
ATOM     36  S   UNL     1      30.980   7.509  -4.158  1.00  0.00    -0.136 S
ATOM     37  C   UNL     1      29.537   9.253  -5.349  1.00  0.00     0.018 A
ATOM     38  C   UNL     1      29.674   7.887  -5.195  1.00  0.00     0.031 A
BRANCH  38  39
ATOM     39  C   UNL     1      28.845   6.795  -5.795  1.00  0.00     0.207 C
BRANCH  39  40
ATOM     40  O   UNL     1      27.837   7.399  -6.605  1.00  0.00    -0.372 OA
BRANCH  40  41
ATOM     41  C   UNL     1      27.962   7.113  -7.999  1.00  0.00     0.194 C
ATOM     42  G   UNL     1      27.919   5.631  -8.272  1.00  0.00     0.000 C
ENDBRANCH  40  41
ENDBRANCH  39  40
ENDBRANCH  38  39
ENDBRANCH  32  34
ENDBRANCH  26  28
ENDBRANCH   1  26
TORSDOF 0
ENDMDL
MODEL 9
REMARK VINA RESULT:      -7.2      1.753      2.643
REMARK SMILES C1=C2/COCc3ccc(s3)-c3ccnc(n3)Nc3ccc(c(c3)COC/1)OCCN1CCC[C@@H]1COC2
REMARK SMILES IDX 18 1 19 2 20 3 21 4 22 5 23 6 24 7 25 8 26 9 1 10 2 11 37 13
REMARK SMILES IDX 36 14 35 15 27 17 28 18 29 19 30 20 31 21 34 22 32 23 33 24
REMARK SMILES IDX 17 26 15 28 14 29 16 30 13 31 11 32 12 33 9 34 8 35 10 36
REMARK SMILES IDX 7 37 6 38 5 39 4 40 3 41
REMARK H PARENT 17 27
REMARK Flexibility Score:   91.800
ROOT
ATOM      1  C   UNL     1      32.765  13.881  -3.453  1.00  0.00     0.042 A
ATOM      2  C   UNL     1      33.290  15.168  -3.602  1.00  0.00     0.030 A
ATOM      3  C   UNL     1      32.502  16.222  -4.084  1.00  0.00     0.049 A
ATOM      4  C   UNL     1      31.171  16.007  -4.448  1.00  0.00     0.125 A
ATOM      5  C   UNL     1      30.599  14.745  -4.237  1.00  0.00     0.022 A
ATOM      6  C   UNL     1      31.412  13.698  -3.761  1.00  0.00     0.036 A
ENDROOT
BRANCH   5   7
ATOM      7  C   UNL     1      29.135  14.465  -4.482  1.00  0.00     0.200 C
BRANCH   7   8
ATOM      8  O   UNL     1      28.977  13.899  -5.781  1.00  0.00    -0.373 OA
BRANCH   8   9
ATOM      9  C   UNL     1      27.759  14.295  -6.388  1.00  0.00     0.188 C
BRANCH   9  10
ATOM     10  C   UNL     1      27.976  14.945  -7.725  1.00  0.00     0.005 C
ATOM     11  C   UNL     1      27.164  15.002  -8.804  1.00  0.00    -0.021 C
ATOM     12  G   UNL     1      27.643  15.665 -10.072  1.00  0.00     0.000 C
BRANCH  11  13
ATOM     13  C   UNL     1      25.794  14.382  -8.876  1.00  0.00     0.193 C
BRANCH  13  14
ATOM     14  O   UNL     1      25.930  13.075  -9.429  1.00  0.00    -0.375 OA
BRANCH  14  15
ATOM     15  C   UNL     1      25.698  12.016  -8.492  1.00  0.00     0.179 C
ATOM     16  G   UNL     1      26.599  10.776  -8.707  1.00  0.00     0.000 C
ENDBRANCH  14  15
ENDBRANCH  13  14
ENDBRANCH  11  13
ENDBRANCH   9  10
ENDBRANCH   8   9
ENDBRANCH   7   8
ENDBRANCH   5   7
BRANCH   4  17
ATOM     17  O   UNL     1      30.355  16.974  -4.964  1.00  0.00    -0.492 OA
BRANCH  17  18
ATOM     18  C   UNL     1      30.716  18.342  -4.749  1.00  0.00     0.245 C
BRANCH  18  19
ATOM     19  C   UNL     1      30.770  19.163  -6.059  1.00  0.00     0.126 C
BRANCH  19  20
ATOM     20  N   UNL     1      31.864  20.117  -6.298  1.00  0.00    -0.295 NA
ATOM     21  C   UNL     1      31.587  21.503  -5.945  1.00  0.00     0.085 C
ATOM     22  C   UNL     1      33.162  19.732  -5.708  1.00  0.00     0.082 C
ATOM     23  C   UNL     1      32.962  22.129  -6.006  1.00  0.00     0.017 C
ATOM     24  C   UNL     1      33.832  21.072  -5.352  1.00  0.00     0.023 C
ATOM     25  G   UNL     1      34.021  18.914  -6.702  1.00  0.00     0.000 C
ENDBRANCH  19  20
ENDBRANCH  18  19
ENDBRANCH  17  18
ENDBRANCH   4  17
BRANCH   1  26
ATOM     26  N   UNL     1      33.608  12.829  -3.080  1.00  0.00    -0.324 N
ATOM     27  H   UNL     1      34.569  13.042  -2.863  1.00  0.00     0.170 HD
BRANCH  26  28
ATOM     28  C   UNL     1      33.360  11.466  -2.936  1.00  0.00     0.227 A
ATOM     29  N   UNL     1      34.184  10.791  -2.119  1.00  0.00    -0.221 NA
ATOM     30  N   UNL     1      32.370  10.880  -3.618  1.00  0.00    -0.212 NA
ATOM     31  C   UNL     1      33.956   9.470  -1.974  1.00  0.00     0.117 A
ATOM     32  C   UNL     1      32.182   9.560  -3.457  1.00  0.00     0.086 A
ATOM     33  C   UNL     1      32.952   8.792  -2.618  1.00  0.00     0.050 A
BRANCH  32  34
ATOM     34  C   UNL     1      31.072   9.008  -4.227  1.00  0.00     0.053 A
ATOM     35  C   UNL     1      30.128   9.662  -4.992  1.00  0.00     0.022 A
ATOM     36  S   UNL     1      30.829   7.311  -4.259  1.00  0.00    -0.136 S
ATOM     37  C   UNL     1      29.239   8.758  -5.645  1.00  0.00     0.018 A
ATOM     38  C   UNL     1      29.519   7.439  -5.351  1.00  0.00     0.031 A
BRANCH  38  39
ATOM     39  C   UNL     1      28.829   6.207  -5.849  1.00  0.00     0.207 C
BRANCH  39  40
ATOM     40  O   UNL     1      27.510   6.573  -6.255  1.00  0.00    -0.372 OA
BRANCH  40  41
ATOM     41  C   UNL     1      26.498   6.259  -5.298  1.00  0.00     0.194 C
ATOM     42  G   UNL     1      25.753   7.490  -4.846  1.00  0.00     0.000 C
ENDBRANCH  40  41
ENDBRANCH  39  40
ENDBRANCH  38  39
ENDBRANCH  32  34
ENDBRANCH  26  28
ENDBRANCH   1  26
TORSDOF 0
ENDMDL
