MODEL 1
REMARK VINA RESULT:      -7.6      0.000      0.000
REMARK SMILES Cc1cnc2nc1-c1cccc(c1)COCC1=CCOCc3cc(ccc3OCCN3CCC[C@H]3COC1)N2
REMARK SMILES IDX 22 1 23 2 24 3 25 4 26 5 27 6 39 7 5 9 2 10 3 11 7 12 4 13
REMARK SMILES IDX 6 14 1 15 8 16 9 17 13 18 10 19 12 20 11 21 14 22 15 23
REMARK SMILES IDX 16 24 21 26 20 27 19 28 18 29 17 30 38 32 37 33 36 34 28 36
REMARK SMILES IDX 29 37 30 38 31 39 32 40 35 41 33 42 34 43
REMARK H PARENT 39 8
REMARK Flexibility Score:  100.800
ROOT
ATOM      1  C   UNL     1      29.622   9.716  -5.082  1.00  0.00     0.022 A
ATOM      2  C   UNL     1      30.761  10.077  -4.346  1.00  0.00     0.036 A
ATOM      3  C   UNL     1      31.618   9.123  -3.777  1.00  0.00     0.042 A
ATOM      4  C   UNL     1      31.359   7.770  -4.021  1.00  0.00     0.030 A
ATOM      5  C   UNL     1      30.221   7.386  -4.738  1.00  0.00     0.049 A
ATOM      6  C   UNL     1      29.351   8.353  -5.243  1.00  0.00     0.125 A
ENDROOT
BRANCH   3   7
ATOM      7  N   UNL     1      32.592   9.489  -2.839  1.00  0.00    -0.324 N
ATOM      8  H   UNL     1      32.649   8.995  -1.965  1.00  0.00     0.170 HD
BRANCH   7   9
ATOM      9  C   UNL     1      33.335  10.671  -2.818  1.00  0.00     0.227 A
ATOM     10  C   UNL     1      34.728  13.009  -2.546  1.00  0.00    -0.006 A
ATOM     11  C   UNL     1      35.289  11.757  -2.362  1.00  0.00     0.120 A
ATOM     12  C   UNL     1      33.396  12.995  -2.914  1.00  0.00     0.079 A
ATOM     13  N   UNL     1      34.624  10.589  -2.474  1.00  0.00    -0.221 NA
ATOM     14  N   UNL     1      32.719  11.836  -3.046  1.00  0.00    -0.212 NA
ATOM     15  C   UNL     1      35.543  14.244  -2.352  1.00  0.00     0.048 C
BRANCH  12  16
ATOM     16  C   UNL     1      32.545  14.180  -3.153  1.00  0.00     0.001 A
ATOM     17  C   UNL     1      31.773  14.776  -2.145  1.00  0.00     0.010 A
ATOM     18  C   UNL     1      32.548  14.795  -4.424  1.00  0.00     0.016 A
ATOM     19  C   UNL     1      31.026  15.931  -2.399  1.00  0.00     0.001 A
ATOM     20  C   UNL     1      31.807  15.958  -4.693  1.00  0.00    -0.022 A
ATOM     21  C   UNL     1      31.045  16.518  -3.665  1.00  0.00     0.006 A
BRANCH  20  22
ATOM     22  C   UNL     1      31.858  16.602  -6.058  1.00  0.00     0.196 C
BRANCH  22  23
ATOM     23  O   UNL     1      33.109  16.376  -6.707  1.00  0.00    -0.372 OA
BRANCH  23  24
ATOM     24  C   UNL     1      33.703  17.600  -7.161  1.00  0.00     0.194 C
ATOM     25  G   UNL     1      33.639  18.590  -6.026  1.00  0.00     0.000 C
ENDBRANCH  23  24
ENDBRANCH  22  23
ENDBRANCH  20  22
ENDBRANCH  12  16
ENDBRANCH   7   9
ENDBRANCH   3   7
BRANCH   1  26
ATOM     26  C   UNL     1      28.733  10.795  -5.645  1.00  0.00     0.200 C
BRANCH  26  27
ATOM     27  O   UNL     1      28.438  11.755  -4.631  1.00  0.00    -0.373 OA
BRANCH  27  28
ATOM     28  C   UNL     1      29.200  12.948  -4.748  1.00  0.00     0.188 C
BRANCH  28  29
ATOM     29  C   UNL     1      28.377  14.200  -4.614  1.00  0.00     0.005 C
ATOM     30  C   UNL     1      27.934  15.024  -5.587  1.00  0.00    -0.021 C
ATOM     31  G   UNL     1      28.112  14.782  -7.064  1.00  0.00     0.000 C
BRANCH  30  32
ATOM     32  C   UNL     1      27.211  16.301  -5.242  1.00  0.00     0.193 C
BRANCH  32  33
ATOM     33  O   UNL     1      26.926  17.007  -6.450  1.00  0.00    -0.375 OA
BRANCH  33  34
ATOM     34  C   UNL     1      27.496  18.315  -6.530  1.00  0.00     0.179 C
ATOM     35  G   UNL     1      28.575  18.605  -5.462  1.00  0.00     0.000 C
ENDBRANCH  33  34
ENDBRANCH  32  33
ENDBRANCH  30  32
ENDBRANCH  28  29
ENDBRANCH  27  28
ENDBRANCH  26  27
ENDBRANCH   1  26
BRANCH   6  36
ATOM     36  O   UNL     1      28.131   7.941  -5.700  1.00  0.00    -0.492 OA
BRANCH  36  37
ATOM     37  C   UNL     1      28.211   6.883  -6.662  1.00  0.00     0.245 C
BRANCH  37  38
ATOM     38  C   UNL     1      28.460   7.528  -8.043  1.00  0.00     0.126 C
BRANCH  38  39
ATOM     39  N   UNL     1      27.205   8.017  -8.653  1.00  0.00    -0.295 NA
ATOM     40  C   UNL     1      27.299   9.442  -9.007  1.00  0.00     0.085 C
ATOM     41  C   UNL     1      26.816   7.360  -9.923  1.00  0.00     0.082 C
ATOM     42  C   UNL     1      27.828   9.489 -10.436  1.00  0.00     0.017 C
ATOM     43  C   UNL     1      27.662   8.074 -10.976  1.00  0.00     0.023 C
ATOM     44  G   UNL     1      26.885   5.821 -10.057  1.00  0.00     0.000 C
ENDBRANCH  38  39
ENDBRANCH  37  38
ENDBRANCH  36  37
ENDBRANCH   6  36
TORSDOF 0
ENDMDL
MODEL 2
REMARK VINA RESULT:      -7.6      2.751      7.821
REMARK SMILES Cc1cnc2nc1-c1cccc(c1)COCC1=CCOCc3cc(ccc3OCCN3CCC[C@H]3COC1)N2
REMARK SMILES IDX 22 1 23 2 24 3 25 4 26 5 27 6 39 7 5 9 2 10 3 11 7 12 4 13
REMARK SMILES IDX 6 14 1 15 8 16 9 17 13 18 10 19 12 20 11 21 14 22 15 23
REMARK SMILES IDX 16 24 21 26 20 27 19 28 18 29 17 30 38 32 37 33 36 34 28 36
REMARK SMILES IDX 29 37 30 38 31 39 32 40 35 41 33 42 34 43
REMARK H PARENT 39 8
REMARK Flexibility Score:  100.800
ROOT
ATOM      1  C   UNL     1      29.013  14.540  -5.414  1.00  0.00     0.022 A
ATOM      2  C   UNL     1      28.687  13.180  -5.526  1.00  0.00     0.036 A
ATOM      3  C   UNL     1      27.374  12.743  -5.757  1.00  0.00     0.042 A
ATOM      4  C   UNL     1      26.379  13.707  -5.954  1.00  0.00     0.030 A
ATOM      5  C   UNL     1      26.678  15.068  -5.831  1.00  0.00     0.049 A
ATOM      6  C   UNL     1      27.981  15.476  -5.541  1.00  0.00     0.125 A
ENDROOT
BRANCH   3   7
ATOM      7  N   UNL     1      27.020  11.396  -5.609  1.00  0.00    -0.324 N
ATOM      8  H   UNL     1      26.093  11.157  -5.301  1.00  0.00     0.170 HD
BRANCH   7   9
ATOM      9  C   UNL     1      27.886  10.303  -5.548  1.00  0.00     0.227 A
ATOM     10  C   UNL     1      29.485   8.108  -5.214  1.00  0.00    -0.006 A
ATOM     11  C   UNL     1      28.273   8.078  -5.883  1.00  0.00     0.120 A
ATOM     12  C   UNL     1      29.854   9.354  -4.744  1.00  0.00     0.079 A
ATOM     13  N   UNL     1      27.456   9.140  -6.049  1.00  0.00    -0.221 NA
ATOM     14  N   UNL     1      29.058  10.429  -4.915  1.00  0.00    -0.212 NA
ATOM     15  C   UNL     1      30.291   6.863  -5.046  1.00  0.00     0.048 C
BRANCH  12  16
ATOM     16  C   UNL     1      31.079   9.669  -3.980  1.00  0.00     0.001 A
ATOM     17  C   UNL     1      31.765   8.714  -3.217  1.00  0.00     0.010 A
ATOM     18  C   UNL     1      31.638  10.963  -4.063  1.00  0.00     0.016 A
ATOM     19  C   UNL     1      32.952   9.041  -2.554  1.00  0.00     0.001 A
ATOM     20  C   UNL     1      32.832  11.305  -3.408  1.00  0.00    -0.022 A
ATOM     21  C   UNL     1      33.483  10.327  -2.651  1.00  0.00     0.006 A
BRANCH  20  22
ATOM     22  C   UNL     1      33.413  12.693  -3.544  1.00  0.00     0.196 C
BRANCH  22  23
ATOM     23  O   UNL     1      33.937  13.174  -2.306  1.00  0.00    -0.372 OA
BRANCH  23  24
ATOM     24  C   UNL     1      35.351  13.400  -2.377  1.00  0.00     0.194 C
ATOM     25  G   UNL     1      35.567  14.856  -2.703  1.00  0.00     0.000 C
ENDBRANCH  23  24
ENDBRANCH  22  23
ENDBRANCH  20  22
ENDBRANCH  12  16
ENDBRANCH   7   9
ENDBRANCH   3   7
BRANCH   1  26
ATOM     26  C   UNL     1      30.442  14.937  -5.141  1.00  0.00     0.200 C
BRANCH  26  27
ATOM     27  O   UNL     1      30.605  15.229  -3.754  1.00  0.00    -0.373 OA
BRANCH  27  28
ATOM     28  C   UNL     1      31.481  16.320  -3.509  1.00  0.00     0.188 C
BRANCH  28  29
ATOM     29  C   UNL     1      32.166  16.829  -4.748  1.00  0.00     0.005 C
ATOM     30  C   UNL     1      32.144  18.075  -5.270  1.00  0.00    -0.021 C
ATOM     31  G   UNL     1      31.473  19.262  -4.629  1.00  0.00     0.000 C
BRANCH  30  32
ATOM     32  C   UNL     1      32.808  18.365  -6.592  1.00  0.00     0.193 C
BRANCH  32  33
ATOM     33  O   UNL     1      32.946  19.779  -6.735  1.00  0.00    -0.375 OA
BRANCH  33  34
ATOM     34  C   UNL     1      34.279  20.270  -6.585  1.00  0.00     0.179 C
ATOM     35  G   UNL     1      34.367  21.713  -6.037  1.00  0.00     0.000 C
ENDBRANCH  33  34
ENDBRANCH  32  33
ENDBRANCH  30  32
ENDBRANCH  28  29
ENDBRANCH  27  28
ENDBRANCH  26  27
ENDBRANCH   1  26
BRANCH   6  36
ATOM     36  O   UNL     1      28.178  16.777  -5.172  1.00  0.00    -0.492 OA
BRANCH  36  37
ATOM     37  C   UNL     1      28.409  17.654  -6.279  1.00  0.00     0.245 C
BRANCH  37  38
ATOM     38  C   UNL     1      27.087  18.399  -6.567  1.00  0.00     0.126 C
BRANCH  38  39
ATOM     39  N   UNL     1      27.191  19.840  -6.254  1.00  0.00    -0.295 NA
ATOM     40  C   UNL     1      28.465  20.402  -6.730  1.00  0.00     0.085 C
ATOM     41  C   UNL     1      26.164  20.704  -6.881  1.00  0.00     0.082 C
ATOM     42  C   UNL     1      28.206  20.890  -8.151  1.00  0.00     0.017 C
ATOM     43  C   UNL     1      26.690  20.925  -8.298  1.00  0.00     0.023 C
ATOM     44  G   UNL     1      24.676  20.284  -6.864  1.00  0.00     0.000 C
ENDBRANCH  38  39
ENDBRANCH  37  38
ENDBRANCH  36  37
ENDBRANCH   6  36
TORSDOF 0
ENDMDL
MODEL 3
REMARK VINA RESULT:      -7.5      2.893     10.203
REMARK SMILES Cc1cnc2nc1-c1cccc(c1)COCC1=CCOCc3cc(ccc3OCCN3CCC[C@H]3COC1)N2
REMARK SMILES IDX 22 1 23 2 24 3 25 4 26 5 27 6 39 7 5 9 2 10 3 11 7 12 4 13
REMARK SMILES IDX 6 14 1 15 8 16 9 17 13 18 10 19 12 20 11 21 14 22 15 23
REMARK SMILES IDX 16 24 21 26 20 27 19 28 18 29 17 30 38 32 37 33 36 34 28 36
REMARK SMILES IDX 29 37 30 38 31 39 32 40 35 41 33 42 34 43
REMARK H PARENT 39 8
REMARK Flexibility Score:  100.800
ROOT
ATOM      1  C   UNL     1      30.799  15.335  -3.619  1.00  0.00     0.022 A
ATOM      2  C   UNL     1      29.739  14.426  -3.765  1.00  0.00     0.036 A
ATOM      3  C   UNL     1      29.180  14.125  -5.016  1.00  0.00     0.042 A
ATOM      4  C   UNL     1      29.755  14.699  -6.155  1.00  0.00     0.030 A
ATOM      5  C   UNL     1      30.801  15.620  -6.032  1.00  0.00     0.049 A
ATOM      6  C   UNL     1      31.300  15.949  -4.771  1.00  0.00     0.125 A
ENDROOT
BRANCH   3   7
ATOM      7  N   UNL     1      27.970  13.426  -5.123  1.00  0.00    -0.324 N
ATOM      8  H   UNL     1      27.353  13.378  -4.330  1.00  0.00     0.170 HD
BRANCH   7   9
ATOM      9  C   UNL     1      27.616  12.509  -6.114  1.00  0.00     0.227 A
ATOM     10  C   UNL     1      26.712  10.685  -7.941  1.00  0.00    -0.006 A
ATOM     11  C   UNL     1      26.552  12.053  -8.081  1.00  0.00     0.120 A
ATOM     12  C   UNL     1      27.401  10.298  -6.807  1.00  0.00     0.079 A
ATOM     13  N   UNL     1      26.973  12.975  -7.190  1.00  0.00    -0.221 NA
ATOM     14  N   UNL     1      27.842  11.207  -5.913  1.00  0.00    -0.212 NA
ATOM     15  C   UNL     1      26.167   9.746  -8.965  1.00  0.00     0.048 C
BRANCH  12  16
ATOM     16  C   UNL     1      27.694   8.909  -6.396  1.00  0.00     0.001 A
ATOM     17  C   UNL     1      28.979   8.352  -6.463  1.00  0.00     0.010 A
ATOM     18  C   UNL     1      26.665   8.113  -5.848  1.00  0.00     0.016 A
ATOM     19  C   UNL     1      29.223   7.051  -6.011  1.00  0.00     0.001 A
ATOM     20  C   UNL     1      26.895   6.807  -5.385  1.00  0.00    -0.022 A
ATOM     21  C   UNL     1      28.188   6.285  -5.474  1.00  0.00     0.006 A
BRANCH  20  22
ATOM     22  C   UNL     1      25.773   5.997  -4.778  1.00  0.00     0.196 C
BRANCH  22  23
ATOM     23  O   UNL     1      25.552   4.779  -5.489  1.00  0.00    -0.372 OA
BRANCH  23  24
ATOM     24  C   UNL     1      24.993   5.014  -6.788  1.00  0.00     0.194 C
ATOM     25  G   UNL     1      25.848   4.286  -7.794  1.00  0.00     0.000 C
ENDBRANCH  23  24
ENDBRANCH  22  23
ENDBRANCH  20  22
ENDBRANCH  12  16
ENDBRANCH   7   9
ENDBRANCH   3   7
BRANCH   1  26
ATOM     26  C   UNL     1      31.334  15.628  -2.241  1.00  0.00     0.200 C
BRANCH  26  27
ATOM     27  O   UNL     1      32.129  14.533  -1.788  1.00  0.00    -0.373 OA
BRANCH  27  28
ATOM     28  C   UNL     1      33.374  14.424  -2.463  1.00  0.00     0.188 C
BRANCH  28  29
ATOM     29  C   UNL     1      33.930  13.027  -2.472  1.00  0.00     0.005 C
ATOM     30  C   UNL     1      33.568  11.981  -3.247  1.00  0.00    -0.021 C
ATOM     31  G   UNL     1      32.554  12.048  -4.359  1.00  0.00     0.000 C
BRANCH  30  32
ATOM     32  C   UNL     1      34.173  10.618  -3.028  1.00  0.00     0.193 C
BRANCH  32  33
ATOM     33  O   UNL     1      33.346   9.890  -2.121  1.00  0.00    -0.375 OA
BRANCH  33  34
ATOM     34  C   UNL     1      32.882   8.630  -2.611  1.00  0.00     0.179 C
ATOM     35  G   UNL     1      31.525   8.697  -3.350  1.00  0.00     0.000 C
ENDBRANCH  33  34
ENDBRANCH  32  33
ENDBRANCH  30  32
ENDBRANCH  28  29
ENDBRANCH  27  28
ENDBRANCH  26  27
ENDBRANCH   1  26
BRANCH   6  36
ATOM     36  O   UNL     1      32.128  17.032  -4.672  1.00  0.00    -0.492 OA
BRANCH  36  37
ATOM     37  C   UNL     1      32.829  17.325  -5.885  1.00  0.00     0.245 C
BRANCH  37  38
ATOM     38  C   UNL     1      32.437  18.756  -6.315  1.00  0.00     0.126 C
BRANCH  38  39
ATOM     39  N   UNL     1      32.143  19.617  -5.150  1.00  0.00    -0.295 NA
ATOM     40  C   UNL     1      32.990  20.821  -5.144  1.00  0.00     0.085 C
ATOM     41  C   UNL     1      30.763  20.152  -5.086  1.00  0.00     0.082 C
ATOM     42  C   UNL     1      32.221  21.881  -5.924  1.00  0.00     0.017 C
ATOM     43  C   UNL     1      30.794  21.355  -6.027  1.00  0.00     0.023 C
ATOM     44  G   UNL     1      29.555  19.225  -5.355  1.00  0.00     0.000 C
ENDBRANCH  38  39
ENDBRANCH  37  38
ENDBRANCH  36  37
ENDBRANCH   6  36
TORSDOF 0
ENDMDL
MODEL 4
REMARK VINA RESULT:      -7.5      2.496      6.822
REMARK SMILES Cc1cnc2nc1-c1cccc(c1)COCC1=CCOCc3cc(ccc3OCCN3CCC[C@H]3COC1)N2
REMARK SMILES IDX 22 1 23 2 24 3 25 4 26 5 27 6 39 7 5 9 2 10 3 11 7 12 4 13
REMARK SMILES IDX 6 14 1 15 8 16 9 17 13 18 10 19 12 20 11 21 14 22 15 23
REMARK SMILES IDX 16 24 21 26 20 27 19 28 18 29 17 30 38 32 37 33 36 34 28 36
REMARK SMILES IDX 29 37 30 38 31 39 32 40 35 41 33 42 34 43
REMARK H PARENT 39 8
REMARK Flexibility Score:  100.800
ROOT
ATOM      1  C   UNL     1      29.585  16.490  -5.036  1.00  0.00     0.022 A
ATOM      2  C   UNL     1      30.876  16.516  -4.487  1.00  0.00     0.036 A
ATOM      3  C   UNL     1      31.789  15.467  -4.674  1.00  0.00     0.042 A
ATOM      4  C   UNL     1      31.414  14.401  -5.499  1.00  0.00     0.030 A
ATOM      5  C   UNL     1      30.127  14.346  -6.043  1.00  0.00     0.049 A
ATOM      6  C   UNL     1      29.216  15.373  -5.793  1.00  0.00     0.125 A
ENDROOT
BRANCH   3   7
ATOM      7  N   UNL     1      32.965  15.384  -3.918  1.00  0.00    -0.324 N
ATOM      8  H   UNL     1      33.627  16.140  -3.944  1.00  0.00     0.170 HD
BRANCH   7   9
ATOM      9  C   UNL     1      33.510  14.236  -3.337  1.00  0.00     0.227 A
ATOM     10  C   UNL     1      34.685  11.947  -2.408  1.00  0.00    -0.006 A
ATOM     11  C   UNL     1      35.247  13.205  -2.275  1.00  0.00     0.120 A
ATOM     12  C   UNL     1      33.450  11.931  -3.029  1.00  0.00     0.079 A
ATOM     13  N   UNL     1      34.699  14.349  -2.735  1.00  0.00    -0.221 NA
ATOM     14  N   UNL     1      32.880  13.066  -3.481  1.00  0.00    -0.212 NA
ATOM     15  C   UNL     1      35.398  10.738  -1.902  1.00  0.00     0.048 C
BRANCH  12  16
ATOM     16  C   UNL     1      32.638  10.731  -3.322  1.00  0.00     0.001 A
ATOM     17  C   UNL     1      32.871   9.489  -2.713  1.00  0.00     0.010 A
ATOM     18  C   UNL     1      31.534  10.833  -4.196  1.00  0.00     0.016 A
ATOM     19  C   UNL     1      32.043   8.393  -2.976  1.00  0.00     0.001 A
ATOM     20  C   UNL     1      30.691   9.743  -4.467  1.00  0.00    -0.022 A
ATOM     21  C   UNL     1      30.959   8.520  -3.846  1.00  0.00     0.006 A
BRANCH  20  22
ATOM     22  C   UNL     1      29.503   9.900  -5.387  1.00  0.00     0.196 C
BRANCH  22  23
ATOM     23  O   UNL     1      28.276   9.589  -4.728  1.00  0.00    -0.372 OA
BRANCH  23  24
ATOM     24  C   UNL     1      27.335   8.973  -5.617  1.00  0.00     0.194 C
ATOM     25  G   UNL     1      27.767   7.544  -5.824  1.00  0.00     0.000 C
ENDBRANCH  23  24
ENDBRANCH  22  23
ENDBRANCH  20  22
ENDBRANCH  12  16
ENDBRANCH   7   9
ENDBRANCH   3   7
BRANCH   1  26
ATOM     26  C   UNL     1      28.648  17.641  -4.774  1.00  0.00     0.200 C
BRANCH  26  27
ATOM     27  O   UNL     1      28.592  18.489  -5.920  1.00  0.00    -0.373 OA
BRANCH  27  28
ATOM     28  C   UNL     1      29.290  19.714  -5.748  1.00  0.00     0.188 C
BRANCH  28  29
ATOM     29  C   UNL     1      30.729  19.649  -6.182  1.00  0.00     0.005 C
ATOM     30  C   UNL     1      31.781  20.361  -5.721  1.00  0.00    -0.021 C
ATOM     31  G   UNL     1      31.721  21.331  -4.569  1.00  0.00     0.000 C
BRANCH  30  32
ATOM     32  C   UNL     1      33.137  20.232  -6.366  1.00  0.00     0.193 C
BRANCH  32  33
ATOM     33  O   UNL     1      33.899  19.267  -5.641  1.00  0.00    -0.375 OA
BRANCH  33  34
ATOM     34  C   UNL     1      34.482  18.237  -6.442  1.00  0.00     0.179 C
ATOM     35  G   UNL     1      33.458  17.400  -7.244  1.00  0.00     0.000 C
ENDBRANCH  33  34
ENDBRANCH  32  33
ENDBRANCH  30  32
ENDBRANCH  28  29
ENDBRANCH  27  28
ENDBRANCH  26  27
ENDBRANCH   1  26
BRANCH   6  36
ATOM     36  O   UNL     1      27.905  15.160  -6.117  1.00  0.00    -0.492 OA
BRANCH  36  37
ATOM     37  C   UNL     1      27.714  14.077  -7.033  1.00  0.00     0.245 C
BRANCH  37  38
ATOM     38  C   UNL     1      27.323  14.686  -8.398  1.00  0.00     0.126 C
BRANCH  38  39
ATOM     39  N   UNL     1      26.370  15.807  -8.244  1.00  0.00    -0.295 NA
ATOM     40  C   UNL     1      26.919  17.057  -8.794  1.00  0.00     0.085 C
ATOM     41  C   UNL     1      25.078  15.645  -8.949  1.00  0.00     0.082 C
ATOM     42  C   UNL     1      26.490  17.099 -10.256  1.00  0.00     0.017 C
ATOM     43  C   UNL     1      25.394  16.048 -10.388  1.00  0.00     0.023 C
ATOM     44  G   UNL     1      24.309  14.305  -8.869  1.00  0.00     0.000 C
ENDBRANCH  38  39
ENDBRANCH  37  38
ENDBRANCH  36  37
ENDBRANCH   6  36
TORSDOF 0
ENDMDL
MODEL 5
REMARK VINA RESULT:      -7.3      2.912      9.911
REMARK SMILES Cc1cnc2nc1-c1cccc(c1)COCC1=CCOCc3cc(ccc3OCCN3CCC[C@H]3COC1)N2
REMARK SMILES IDX 22 1 23 2 24 3 25 4 26 5 27 6 39 7 5 9 2 10 3 11 7 12 4 13
REMARK SMILES IDX 6 14 1 15 8 16 9 17 13 18 10 19 12 20 11 21 14 22 15 23
REMARK SMILES IDX 16 24 21 26 20 27 19 28 18 29 17 30 38 32 37 33 36 34 28 36
REMARK SMILES IDX 29 37 30 38 31 39 32 40 35 41 33 42 34 43
REMARK H PARENT 39 8
REMARK Flexibility Score:  100.800
ROOT
ATOM      1  C   UNL     1      30.598  15.145  -3.654  1.00  0.00     0.022 A
ATOM      2  C   UNL     1      29.844  13.963  -3.615  1.00  0.00     0.036 A
ATOM      3  C   UNL     1      29.326  13.367  -4.775  1.00  0.00     0.042 A
ATOM      4  C   UNL     1      29.644  13.939  -6.012  1.00  0.00     0.030 A
ATOM      5  C   UNL     1      30.380  15.126  -6.074  1.00  0.00     0.049 A
ATOM      6  C   UNL     1      30.832  15.733  -4.902  1.00  0.00     0.125 A
ENDROOT
BRANCH   3   7
ATOM      7  N   UNL     1      28.370  12.346  -4.703  1.00  0.00    -0.324 N
ATOM      8  H   UNL     1      27.481  12.528  -4.270  1.00  0.00     0.170 HD
BRANCH   7   9
ATOM      9  C   UNL     1      28.586  10.979  -4.892  1.00  0.00     0.227 A
ATOM     10  C   UNL     1      29.039   8.350  -5.495  1.00  0.00    -0.006 A
ATOM     11  C   UNL     1      30.033   9.227  -5.099  1.00  0.00     0.120 A
ATOM     12  C   UNL     1      27.770   8.897  -5.536  1.00  0.00     0.079 A
ATOM     13  N   UNL     1      29.843  10.531  -4.810  1.00  0.00    -0.221 NA
ATOM     14  N   UNL     1      27.559  10.195  -5.236  1.00  0.00    -0.212 NA
ATOM     15  C   UNL     1      29.365   6.934  -5.837  1.00  0.00     0.048 C
BRANCH  12  16
ATOM     16  C   UNL     1      26.533   8.199  -5.945  1.00  0.00     0.001 A
ATOM     17  C   UNL     1      25.708   7.521  -5.035  1.00  0.00     0.010 A
ATOM     18  C   UNL     1      26.108   8.264  -7.290  1.00  0.00     0.016 A
ATOM     19  C   UNL     1      24.516   6.921  -5.455  1.00  0.00     0.001 A
ATOM     20  C   UNL     1      24.911   7.671  -7.725  1.00  0.00    -0.022 A
ATOM     21  C   UNL     1      24.120   6.998  -6.791  1.00  0.00     0.006 A
BRANCH  20  22
ATOM     22  C   UNL     1      24.477   7.786  -9.167  1.00  0.00     0.196 C
BRANCH  22  23
ATOM     23  O   UNL     1      25.301   8.694  -9.900  1.00  0.00    -0.372 OA
BRANCH  23  24
ATOM     24  C   UNL     1      25.862   8.081 -11.068  1.00  0.00     0.194 C
ATOM     25  G   UNL     1      27.344   7.930 -10.840  1.00  0.00     0.000 C
ENDBRANCH  23  24
ENDBRANCH  22  23
ENDBRANCH  20  22
ENDBRANCH  12  16
ENDBRANCH   7   9
ENDBRANCH   3   7
BRANCH   1  26
ATOM     26  C   UNL     1      31.101  15.743  -2.366  1.00  0.00     0.200 C
BRANCH  26  27
ATOM     27  O   UNL     1      32.035  14.854  -1.753  1.00  0.00    -0.373 OA
BRANCH  27  28
ATOM     28  C   UNL     1      33.175  14.593  -2.560  1.00  0.00     0.188 C
BRANCH  28  29
ATOM     29  C   UNL     1      33.320  13.145  -2.941  1.00  0.00     0.005 C
ATOM     30  C   UNL     1      34.300  12.279  -2.600  1.00  0.00    -0.021 C
ATOM     31  G   UNL     1      35.433  12.594  -1.658  1.00  0.00     0.000 C
BRANCH  30  32
ATOM     32  C   UNL     1      34.329  10.887  -3.177  1.00  0.00     0.193 C
BRANCH  32  33
ATOM     33  O   UNL     1      32.987  10.411  -3.291  1.00  0.00    -0.375 OA
BRANCH  33  34
ATOM     34  C   UNL     1      32.671   9.301  -2.448  1.00  0.00     0.179 C
ATOM     35  G   UNL     1      33.834   8.842  -1.538  1.00  0.00     0.000 C
ENDBRANCH  33  34
ENDBRANCH  32  33
ENDBRANCH  30  32
ENDBRANCH  28  29
ENDBRANCH  27  28
ENDBRANCH  26  27
ENDBRANCH   1  26
BRANCH   6  36
ATOM     36  O   UNL     1      31.311  17.010  -4.985  1.00  0.00    -0.492 OA
BRANCH  36  37
ATOM     37  C   UNL     1      30.284  18.006  -4.960  1.00  0.00     0.245 C
BRANCH  37  38
ATOM     38  C   UNL     1      30.960  19.364  -4.667  1.00  0.00     0.126 C
BRANCH  38  39
ATOM     39  N   UNL     1      31.407  20.032  -5.908  1.00  0.00    -0.295 NA
ATOM     40  C   UNL     1      31.035  21.456  -5.915  1.00  0.00     0.085 C
ATOM     41  C   UNL     1      32.872  20.045  -6.132  1.00  0.00     0.082 C
ATOM     42  C   UNL     1      32.204  22.201  -5.280  1.00  0.00     0.017 C
ATOM     43  C   UNL     1      33.361  21.210  -5.272  1.00  0.00     0.023 C
ATOM     44  G   UNL     1      33.705  18.761  -5.914  1.00  0.00     0.000 C
ENDBRANCH  38  39
ENDBRANCH  37  38
ENDBRANCH  36  37
ENDBRANCH   6  36
TORSDOF 0
ENDMDL
MODEL 6
REMARK VINA RESULT:      -7.3      1.487      2.249
REMARK SMILES Cc1cnc2nc1-c1cccc(c1)COCC1=CCOCc3cc(ccc3OCCN3CCC[C@H]3COC1)N2
REMARK SMILES IDX 22 1 23 2 24 3 25 4 26 5 27 6 39 7 5 9 2 10 3 11 7 12 4 13
REMARK SMILES IDX 6 14 1 15 8 16 9 17 13 18 10 19 12 20 11 21 14 22 15 23
REMARK SMILES IDX 16 24 21 26 20 27 19 28 18 29 17 30 38 32 37 33 36 34 28 36
REMARK SMILES IDX 29 37 30 38 31 39 32 40 35 41 33 42 34 43
REMARK H PARENT 39 8
REMARK Flexibility Score:  100.800
ROOT
ATOM      1  C   UNL     1      29.286  10.332  -4.568  1.00  0.00     0.022 A
ATOM      2  C   UNL     1      30.461  10.010  -3.871  1.00  0.00     0.036 A
ATOM      3  C   UNL     1      31.068   8.749  -3.971  1.00  0.00     0.042 A
ATOM      4  C   UNL     1      30.516   7.816  -4.855  1.00  0.00     0.030 A
ATOM      5  C   UNL     1      29.337   8.109  -5.548  1.00  0.00     0.049 A
ATOM      6  C   UNL     1      28.718   9.349  -5.385  1.00  0.00     0.125 A
ENDROOT
BRANCH   3   7
ATOM      7  N   UNL     1      32.079   8.357  -3.084  1.00  0.00    -0.324 N
ATOM      8  H   UNL     1      31.961   7.522  -2.535  1.00  0.00     0.170 HD
BRANCH   7   9
ATOM      9  C   UNL     1      33.138   9.140  -2.620  1.00  0.00     0.227 A
ATOM     10  C   UNL     1      35.080  10.719  -1.517  1.00  0.00    -0.006 A
ATOM     11  C   UNL     1      35.013   9.348  -1.336  1.00  0.00     0.120 A
ATOM     12  C   UNL     1      34.096  11.241  -2.335  1.00  0.00     0.079 A
ATOM     13  N   UNL     1      34.060   8.546  -1.854  1.00  0.00    -0.221 NA
ATOM     14  N   UNL     1      33.144  10.452  -2.874  1.00  0.00    -0.212 NA
ATOM     15  C   UNL     1      36.153  11.522  -0.860  1.00  0.00     0.048 C
BRANCH  12  16
ATOM     16  C   UNL     1      33.915  12.667  -2.680  1.00  0.00     0.001 A
ATOM     17  C   UNL     1      34.938  13.616  -2.547  1.00  0.00     0.010 A
ATOM     18  C   UNL     1      32.689  13.100  -3.232  1.00  0.00     0.016 A
ATOM     19  C   UNL     1      34.742  14.945  -2.938  1.00  0.00     0.001 A
ATOM     20  C   UNL     1      32.479  14.429  -3.634  1.00  0.00    -0.022 A
ATOM     21  C   UNL     1      33.521  15.348  -3.479  1.00  0.00     0.006 A
BRANCH  20  22
ATOM     22  C   UNL     1      31.162  14.847  -4.246  1.00  0.00     0.196 C
BRANCH  22  23
ATOM     23  O   UNL     1      31.177  16.215  -4.654  1.00  0.00    -0.372 OA
BRANCH  23  24
ATOM     24  C   UNL     1      31.150  16.346  -6.081  1.00  0.00     0.194 C
ATOM     25  G   UNL     1      31.152  17.818  -6.407  1.00  0.00     0.000 C
ENDBRANCH  23  24
ENDBRANCH  22  23
ENDBRANCH  20  22
ENDBRANCH  12  16
ENDBRANCH   7   9
ENDBRANCH   3   7
BRANCH   1  26
ATOM     26  C   UNL     1      28.676  11.699  -4.395  1.00  0.00     0.200 C
BRANCH  26  27
ATOM     27  O   UNL     1      29.081  12.549  -5.467  1.00  0.00    -0.373 OA
BRANCH  27  28
ATOM     28  C   UNL     1      27.990  13.115  -6.179  1.00  0.00     0.188 C
BRANCH  28  29
ATOM     29  C   UNL     1      27.636  14.505  -5.725  1.00  0.00     0.005 C
ATOM     30  C   UNL     1      27.628  15.649  -6.444  1.00  0.00    -0.021 C
ATOM     31  G   UNL     1      27.897  15.734  -7.925  1.00  0.00     0.000 C
BRANCH  30  32
ATOM     32  C   UNL     1      27.350  16.972  -5.778  1.00  0.00     0.193 C
BRANCH  32  33
ATOM     33  O   UNL     1      26.132  17.502  -6.303  1.00  0.00    -0.375 OA
BRANCH  33  34
ATOM     34  C   UNL     1      26.247  18.796  -6.897  1.00  0.00     0.179 C
ATOM     35  G   UNL     1      27.599  19.499  -6.634  1.00  0.00     0.000 C
ENDBRANCH  33  34
ENDBRANCH  32  33
ENDBRANCH  30  32
ENDBRANCH  28  29
ENDBRANCH  27  28
ENDBRANCH  26  27
ENDBRANCH   1  26
BRANCH   6  36
ATOM     36  O   UNL     1      27.447   9.499  -5.864  1.00  0.00    -0.492 OA
BRANCH  36  37
ATOM     37  C   UNL     1      27.350   9.336  -7.283  1.00  0.00     0.245 C
BRANCH  37  38
ATOM     38  C   UNL     1      26.109   8.461  -7.567  1.00  0.00     0.126 C
BRANCH  38  39
ATOM     39  N   UNL     1      26.315   7.583  -8.739  1.00  0.00    -0.295 NA
ATOM     40  C   UNL     1      27.718   7.152  -8.848  1.00  0.00     0.085 C
ATOM     41  C   UNL     1      25.552   6.313  -8.725  1.00  0.00     0.082 C
ATOM     42  C   UNL     1      27.823   5.855  -8.055  1.00  0.00     0.017 C
ATOM     43  C   UNL     1      26.387   5.397  -7.833  1.00  0.00     0.023 C
ATOM     44  G   UNL     1      24.055   6.308  -8.338  1.00  0.00     0.000 C
ENDBRANCH  38  39
ENDBRANCH  37  38
ENDBRANCH  36  37
ENDBRANCH   6  36
TORSDOF 0
ENDMDL
MODEL 7
REMARK VINA RESULT:      -7.2      2.845      8.204
REMARK SMILES Cc1cnc2nc1-c1cccc(c1)COCC1=CCOCc3cc(ccc3OCCN3CCC[C@H]3COC1)N2
REMARK SMILES IDX 22 1 23 2 24 3 25 4 26 5 27 6 39 7 5 9 2 10 3 11 7 12 4 13
REMARK SMILES IDX 6 14 1 15 8 16 9 17 13 18 10 19 12 20 11 21 14 22 15 23
REMARK SMILES IDX 16 24 21 26 20 27 19 28 18 29 17 30 38 32 37 33 36 34 28 36
REMARK SMILES IDX 29 37 30 38 31 39 32 40 35 41 33 42 34 43
REMARK H PARENT 39 8
REMARK Flexibility Score:  100.800
ROOT
ATOM      1  C   UNL     1      28.004  14.937  -6.871  1.00  0.00     0.022 A
ATOM      2  C   UNL     1      27.393  13.686  -6.696  1.00  0.00     0.036 A
ATOM      3  C   UNL     1      27.565  12.926  -5.529  1.00  0.00     0.042 A
ATOM      4  C   UNL     1      28.313  13.478  -4.483  1.00  0.00     0.030 A
ATOM      5  C   UNL     1      28.945  14.715  -4.641  1.00  0.00     0.049 A
ATOM      6  C   UNL     1      28.808  15.425  -5.835  1.00  0.00     0.125 A
ENDROOT
BRANCH   3   7
ATOM      7  N   UNL     1      27.168  11.584  -5.470  1.00  0.00    -0.324 N
ATOM      8  H   UNL     1      26.230  11.355  -5.188  1.00  0.00     0.170 HD
BRANCH   7   9
ATOM      9  C   UNL     1      28.000  10.462  -5.467  1.00  0.00     0.227 A
ATOM     10  C   UNL     1      29.526   8.202  -5.254  1.00  0.00    -0.006 A
ATOM     11  C   UNL     1      28.322   8.252  -5.934  1.00  0.00     0.120 A
ATOM     12  C   UNL     1      29.928   9.405  -4.704  1.00  0.00     0.079 A
ATOM     13  N   UNL     1      27.541   9.346  -6.044  1.00  0.00    -0.221 NA
ATOM     14  N   UNL     1      29.167  10.513  -4.817  1.00  0.00    -0.212 NA
ATOM     15  C   UNL     1      30.292   6.925  -5.154  1.00  0.00     0.048 C
BRANCH  12  16
ATOM     16  C   UNL     1      31.153   9.635  -3.910  1.00  0.00     0.001 A
ATOM     17  C   UNL     1      31.819   8.606  -3.228  1.00  0.00     0.010 A
ATOM     18  C   UNL     1      31.732  10.922  -3.879  1.00  0.00     0.016 A
ATOM     19  C   UNL     1      33.008   8.857  -2.534  1.00  0.00     0.001 A
ATOM     20  C   UNL     1      32.927  11.188  -3.191  1.00  0.00    -0.022 A
ATOM     21  C   UNL     1      33.559  10.138  -2.517  1.00  0.00     0.006 A
BRANCH  20  22
ATOM     22  C   UNL     1      33.530  12.573  -3.205  1.00  0.00     0.196 C
BRANCH  22  23
ATOM     23  O   UNL     1      32.530  13.587  -3.302  1.00  0.00    -0.372 OA
BRANCH  23  24
ATOM     24  C   UNL     1      32.837  14.541  -4.328  1.00  0.00     0.194 C
ATOM     25  G   UNL     1      32.273  14.019  -5.624  1.00  0.00     0.000 C
ENDBRANCH  23  24
ENDBRANCH  22  23
ENDBRANCH  20  22
ENDBRANCH  12  16
ENDBRANCH   7   9
ENDBRANCH   3   7
BRANCH   1  26
ATOM     26  C   UNL     1      27.794  15.687  -8.161  1.00  0.00     0.200 C
BRANCH  26  27
ATOM     27  O   UNL     1      26.398  15.864  -8.395  1.00  0.00    -0.373 OA
BRANCH  27  28
ATOM     28  C   UNL     1      26.030  15.690  -9.756  1.00  0.00     0.188 C
BRANCH  28  29
ATOM     29  C   UNL     1      26.879  14.684 -10.483  1.00  0.00     0.005 C
ATOM     30  C   UNL     1      27.311  14.714 -11.762  1.00  0.00    -0.021 C
ATOM     31  G   UNL     1      27.087  15.859 -12.717  1.00  0.00     0.000 C
BRANCH  30  32
ATOM     32  C   UNL     1      28.067  13.547 -12.345  1.00  0.00     0.193 C
BRANCH  32  33
ATOM     33  O   UNL     1      28.615  12.776 -11.276  1.00  0.00    -0.375 OA
BRANCH  33  34
ATOM     34  C   UNL     1      28.635  11.365 -11.502  1.00  0.00     0.179 C
ATOM     35  G   UNL     1      27.434  10.836 -12.320  1.00  0.00     0.000 C
ENDBRANCH  33  34
ENDBRANCH  32  33
ENDBRANCH  30  32
ENDBRANCH  28  29
ENDBRANCH  27  28
ENDBRANCH  26  27
ENDBRANCH   1  26
BRANCH   6  36
ATOM     36  O   UNL     1      29.641  16.486  -6.048  1.00  0.00    -0.492 OA
BRANCH  36  37
ATOM     37  C   UNL     1      30.106  17.097  -4.840  1.00  0.00     0.245 C
BRANCH  37  38
ATOM     38  C   UNL     1      30.493  18.555  -5.175  1.00  0.00     0.126 C
BRANCH  38  39
ATOM     39  N   UNL     1      31.832  18.900  -4.654  1.00  0.00    -0.295 NA
ATOM     40  C   UNL     1      32.883  18.095  -5.297  1.00  0.00     0.085 C
ATOM     41  C   UNL     1      32.265  20.298  -4.884  1.00  0.00     0.082 C
ATOM     42  C   UNL     1      33.328  18.884  -6.523  1.00  0.00     0.017 C
ATOM     43  C   UNL     1      32.775  20.290  -6.324  1.00  0.00     0.023 C
ATOM     44  G   UNL     1      31.292  21.469  -4.611  1.00  0.00     0.000 C
ENDBRANCH  38  39
ENDBRANCH  37  38
ENDBRANCH  36  37
ENDBRANCH   6  36
TORSDOF 0
ENDMDL
MODEL 8
REMARK VINA RESULT:      -7.2      2.815      7.503
REMARK SMILES Cc1cnc2nc1-c1cccc(c1)COCC1=CCOCc3cc(ccc3OCCN3CCC[C@H]3COC1)N2
REMARK SMILES IDX 22 1 23 2 24 3 25 4 26 5 27 6 39 7 5 9 2 10 3 11 7 12 4 13
REMARK SMILES IDX 6 14 1 15 8 16 9 17 13 18 10 19 12 20 11 21 14 22 15 23
REMARK SMILES IDX 16 24 21 26 20 27 19 28 18 29 17 30 38 32 37 33 36 34 28 36
REMARK SMILES IDX 29 37 30 38 31 39 32 40 35 41 33 42 34 43
REMARK H PARENT 39 8
REMARK Flexibility Score:  100.800
ROOT
ATOM      1  C   UNL     1      28.495  14.964  -5.073  1.00  0.00     0.022 A
ATOM      2  C   UNL     1      28.317  13.577  -4.959  1.00  0.00     0.036 A
ATOM      3  C   UNL     1      27.197  12.920  -5.491  1.00  0.00     0.042 A
ATOM      4  C   UNL     1      26.272  13.674  -6.221  1.00  0.00     0.030 A
ATOM      5  C   UNL     1      26.420  15.060  -6.333  1.00  0.00     0.049 A
ATOM      6  C   UNL     1      27.511  15.699  -5.743  1.00  0.00     0.125 A
ENDROOT
BRANCH   3   7
ATOM      7  N   UNL     1      26.903  11.593  -5.152  1.00  0.00    -0.324 N
ATOM      8  H   UNL     1      26.113  11.394  -4.563  1.00  0.00     0.170 HD
BRANCH   7   9
ATOM      9  C   UNL     1      27.747  10.488  -5.280  1.00  0.00     0.227 A
ATOM     10  C   UNL     1      29.308   8.242  -5.323  1.00  0.00    -0.006 A
ATOM     11  C   UNL     1      28.073   8.328  -5.941  1.00  0.00     0.120 A
ATOM     12  C   UNL     1      29.721   9.403  -4.696  1.00  0.00     0.079 A
ATOM     13  N   UNL     1      27.274   9.416  -5.924  1.00  0.00    -0.221 NA
ATOM     14  N   UNL     1      28.943  10.504  -4.682  1.00  0.00    -0.212 NA
ATOM     15  C   UNL     1      30.093   6.973  -5.364  1.00  0.00     0.048 C
BRANCH  12  16
ATOM     16  C   UNL     1      30.979   9.586  -3.943  1.00  0.00     0.001 A
ATOM     17  C   UNL     1      31.554   8.570  -3.166  1.00  0.00     0.010 A
ATOM     18  C   UNL     1      31.685  10.804  -4.051  1.00  0.00     0.016 A
ATOM     19  C   UNL     1      32.776   8.767  -2.514  1.00  0.00     0.001 A
ATOM     20  C   UNL     1      32.915  11.015  -3.407  1.00  0.00    -0.022 A
ATOM     21  C   UNL     1      33.453   9.981  -2.636  1.00  0.00     0.006 A
BRANCH  20  22
ATOM     22  C   UNL     1      33.654  12.323  -3.571  1.00  0.00     0.196 C
BRANCH  22  23
ATOM     23  O   UNL     1      33.065  13.366  -2.794  1.00  0.00    -0.372 OA
BRANCH  23  24
ATOM     24  C   UNL     1      33.938  14.498  -2.673  1.00  0.00     0.194 C
ATOM     25  G   UNL     1      35.349  13.979  -2.569  1.00  0.00     0.000 C
ENDBRANCH  23  24
ENDBRANCH  22  23
ENDBRANCH  20  22
ENDBRANCH  12  16
ENDBRANCH   7   9
ENDBRANCH   3   7
BRANCH   1  26
ATOM     26  C   UNL     1      29.711  15.606  -4.455  1.00  0.00     0.200 C
BRANCH  26  27
ATOM     27  O   UNL     1      30.703  15.825  -5.458  1.00  0.00    -0.373 OA
BRANCH  27  28
ATOM     28  C   UNL     1      31.974  16.166  -4.925  1.00  0.00     0.188 C
BRANCH  28  29
ATOM     29  C   UNL     1      32.285  17.635  -5.010  1.00  0.00     0.005 C
ATOM     30  C   UNL     1      33.061  18.282  -5.907  1.00  0.00    -0.021 C
ATOM     31  G   UNL     1      33.716  17.633  -7.100  1.00  0.00     0.000 C
BRANCH  30  32
ATOM     32  C   UNL     1      33.342  19.755  -5.759  1.00  0.00     0.193 C
BRANCH  32  33
ATOM     33  O   UNL     1      32.412  20.482  -6.563  1.00  0.00    -0.375 OA
BRANCH  33  34
ATOM     34  C   UNL     1      31.666  21.480  -5.864  1.00  0.00     0.179 C
ATOM     35  G   UNL     1      32.331  21.973  -4.558  1.00  0.00     0.000 C
ENDBRANCH  33  34
ENDBRANCH  32  33
ENDBRANCH  30  32
ENDBRANCH  28  29
ENDBRANCH  27  28
ENDBRANCH  26  27
ENDBRANCH   1  26
BRANCH   6  36
ATOM     36  O   UNL     1      27.482  17.061  -5.649  1.00  0.00    -0.492 OA
BRANCH  36  37
ATOM     37  C   UNL     1      28.042  17.723  -6.788  1.00  0.00     0.245 C
BRANCH  37  38
ATOM     38  C   UNL     1      27.111  18.904  -7.144  1.00  0.00     0.126 C
BRANCH  38  39
ATOM     39  N   UNL     1      25.726  18.452  -7.395  1.00  0.00    -0.295 NA
ATOM     40  C   UNL     1      24.755  19.529  -7.140  1.00  0.00     0.085 C
ATOM     41  C   UNL     1      25.435  18.033  -8.786  1.00  0.00     0.082 C
ATOM     42  C   UNL     1      24.588  20.268  -8.463  1.00  0.00     0.017 C
ATOM     43  C   UNL     1      25.189  19.350  -9.520  1.00  0.00     0.023 C
ATOM     44  G   UNL     1      26.418  17.111  -9.544  1.00  0.00     0.000 C
ENDBRANCH  38  39
ENDBRANCH  37  38
ENDBRANCH  36  37
ENDBRANCH   6  36
TORSDOF 0
ENDMDL
MODEL 9
REMARK VINA RESULT:      -7.2      2.533      9.306
REMARK SMILES Cc1cnc2nc1-c1cccc(c1)COCC1=CCOCc3cc(ccc3OCCN3CCC[C@H]3COC1)N2
REMARK SMILES IDX 22 1 23 2 24 3 25 4 26 5 27 6 39 7 5 9 2 10 3 11 7 12 4 13
REMARK SMILES IDX 6 14 1 15 8 16 9 17 13 18 10 19 12 20 11 21 14 22 15 23
REMARK SMILES IDX 16 24 21 26 20 27 19 28 18 29 17 30 38 32 37 33 36 34 28 36
REMARK SMILES IDX 29 37 30 38 31 39 32 40 35 41 33 42 34 43
REMARK H PARENT 39 8
REMARK Flexibility Score:  100.800
ROOT
ATOM      1  C   UNL     1      29.326  13.913  -4.673  1.00  0.00     0.022 A
ATOM      2  C   UNL     1      28.881  12.583  -4.652  1.00  0.00     0.036 A
ATOM      3  C   UNL     1      27.965  12.086  -5.592  1.00  0.00     0.042 A
ATOM      4  C   UNL     1      27.548  12.934  -6.623  1.00  0.00     0.030 A
ATOM      5  C   UNL     1      27.965  14.268  -6.654  1.00  0.00     0.049 A
ATOM      6  C   UNL     1      28.829  14.755  -5.673  1.00  0.00     0.125 A
ENDROOT
BRANCH   3   7
ATOM      7  N   UNL     1      27.336  10.847  -5.410  1.00  0.00    -0.324 N
ATOM      8  H   UNL     1      26.669  10.733  -4.666  1.00  0.00     0.170 HD
BRANCH   7   9
ATOM      9  C   UNL     1      27.730   9.619  -5.947  1.00  0.00     0.227 A
ATOM     10  C   UNL     1      28.708   7.319  -7.057  1.00  0.00    -0.006 A
ATOM     11  C   UNL     1      28.829   7.633  -5.715  1.00  0.00     0.120 A
ATOM     12  C   UNL     1      28.018   8.252  -7.808  1.00  0.00     0.079 A
ATOM     13  N   UNL     1      28.371   8.765  -5.142  1.00  0.00    -0.221 NA
ATOM     14  N   UNL     1      27.539   9.382  -7.249  1.00  0.00    -0.212 NA
ATOM     15  C   UNL     1      29.292   6.057  -7.599  1.00  0.00     0.048 C
BRANCH  12  16
ATOM     16  C   UNL     1      27.761   8.184  -9.261  1.00  0.00     0.001 A
ATOM     17  C   UNL     1      27.049   7.134  -9.859  1.00  0.00     0.010 A
ATOM     18  C   UNL     1      28.183   9.244 -10.094  1.00  0.00     0.016 A
ATOM     19  C   UNL     1      26.780   7.138 -11.232  1.00  0.00     0.001 A
ATOM     20  C   UNL     1      27.916   9.264 -11.472  1.00  0.00    -0.022 A
ATOM     21  C   UNL     1      27.209   8.197 -12.032  1.00  0.00     0.006 A
BRANCH  20  22
ATOM     22  C   UNL     1      28.359  10.431 -12.324  1.00  0.00     0.196 C
BRANCH  22  23
ATOM     23  O   UNL     1      29.120  11.378 -11.574  1.00  0.00    -0.372 OA
BRANCH  23  24
ATOM     24  C   UNL     1      28.540  12.688 -11.626  1.00  0.00     0.194 C
ATOM     25  G   UNL     1      27.433  12.740 -10.605  1.00  0.00     0.000 C
ENDBRANCH  23  24
ENDBRANCH  22  23
ENDBRANCH  20  22
ENDBRANCH  12  16
ENDBRANCH   7   9
ENDBRANCH   3   7
BRANCH   1  26
ATOM     26  C   UNL     1      30.292  14.385  -3.616  1.00  0.00     0.200 C
BRANCH  26  27
ATOM     27  O   UNL     1      31.606  14.471  -4.167  1.00  0.00    -0.373 OA
BRANCH  27  28
ATOM     28  C   UNL     1      32.632  14.379  -3.189  1.00  0.00     0.188 C
BRANCH  28  29
ATOM     29  C   UNL     1      33.052  12.965  -2.892  1.00  0.00     0.005 C
ATOM     30  C   UNL     1      34.280  12.501  -2.576  1.00  0.00    -0.021 C
ATOM     31  G   UNL     1      35.496  13.365  -2.364  1.00  0.00     0.000 C
BRANCH  30  32
ATOM     32  C   UNL     1      34.525  11.022  -2.421  1.00  0.00     0.193 C
BRANCH  32  33
ATOM     33  O   UNL     1      33.580  10.314  -3.225  1.00  0.00    -0.375 OA
BRANCH  33  34
ATOM     34  C   UNL     1      32.922   9.231  -2.564  1.00  0.00     0.179 C
ATOM     35  G   UNL     1      31.448   9.030  -2.987  1.00  0.00     0.000 C
ENDBRANCH  33  34
ENDBRANCH  32  33
ENDBRANCH  30  32
ENDBRANCH  28  29
ENDBRANCH  27  28
ENDBRANCH  26  27
ENDBRANCH   1  26
BRANCH   6  36
ATOM     36  O   UNL     1      29.002  16.108  -5.586  1.00  0.00    -0.492 OA
BRANCH  36  37
ATOM     37  C   UNL     1      29.950  16.623  -6.526  1.00  0.00     0.245 C
BRANCH  37  38
ATOM     38  C   UNL     1      30.937  17.521  -5.748  1.00  0.00     0.126 C
BRANCH  38  39
ATOM     39  N   UNL     1      31.392  18.669  -6.562  1.00  0.00    -0.295 NA
ATOM     40  C   UNL     1      31.021  19.950  -5.939  1.00  0.00     0.085 C
ATOM     41  C   UNL     1      32.857  18.775  -6.750  1.00  0.00     0.082 C
ATOM     42  C   UNL     1      32.187  20.331  -5.033  1.00  0.00     0.017 C
ATOM     43  C   UNL     1      33.343  19.435  -5.460  1.00  0.00     0.023 C
ATOM     44  G   UNL     1      33.688  17.524  -7.119  1.00  0.00     0.000 C
ENDBRANCH  38  39
ENDBRANCH  37  38
ENDBRANCH  36  37
ENDBRANCH   6  36
TORSDOF 0
ENDMDL
