MODEL 1
REMARK VINA RESULT:      -7.5      0.000      0.000
REMARK SMILES O=C1Nc2c[nH]nc2-c2nc3ccc(cc3[nH]2)CN2CCOC[C@@H]2CCCCCCC2(CC2)N1
REMARK SMILES IDX 9 1 10 2 11 3 12 4 13 5 14 6 15 7 16 8 17 9 8 11 4 12 5 13
REMARK SMILES IDX 6 14 7 15 3 17 1 18 2 19 34 20 31 23 32 24 33 25 30 26 29 27
REMARK SMILES IDX 18 29 19 30 20 31 24 32 21 33 23 34 22 35 25 36 26 37 27 38
REMARK SMILES IDX 28 39
REMARK H PARENT 17 10 6 16 3 21 34 22
REMARK Flexibility Score:   58.900
ROOT
ATOM      1  C   UNL     1      30.482   8.515  -4.550  1.00  0.00     0.161 A
ATOM      2  N   UNL     1      31.542   8.707  -3.776  1.00  0.00    -0.227 NA
ATOM      3  C   UNL     1      31.837  10.046  -3.865  1.00  0.00     0.089 A
ATOM      4  C   UNL     1      32.895  10.786  -3.318  1.00  0.00     0.031 A
ATOM      5  C   UNL     1      32.992  12.155  -3.628  1.00  0.00     0.007 A
ATOM      6  C   UNL     1      32.045  12.793  -4.450  1.00  0.00    -0.032 A
ATOM      7  C   UNL     1      30.942  12.063  -4.930  1.00  0.00     0.033 A
ATOM      8  C   UNL     1      30.904  10.700  -4.649  1.00  0.00     0.066 A
ATOM      9  N   UNL     1      30.058   9.709  -5.058  1.00  0.00    -0.337 N
ATOM     10  H   UNL     1      29.330   9.816  -5.751  1.00  0.00     0.168 HD
ENDROOT
BRANCH   1  11
ATOM     11  C   UNL     1      29.806   7.105  -4.811  1.00  0.00     0.151 A
ATOM     12  C   UNL     1      28.632   6.708  -5.544  1.00  0.00     0.092 A
ATOM     13  C   UNL     1      28.505   5.361  -5.259  1.00  0.00     0.132 A
ATOM     14  N   UNL     1      29.569   5.018  -4.488  1.00  0.00    -0.283 N
ATOM     15  N   UNL     1      30.371   6.040  -4.209  1.00  0.00    -0.170 NA
ATOM     16  H   UNL     1      29.813   4.107  -4.114  1.00  0.00     0.189 HD
BRANCH  12  17
ATOM     17  N   UNL     1      27.684   7.288  -6.380  1.00  0.00    -0.304 N
ATOM     18  O   UNL     1      28.951   8.653  -7.743  1.00  0.00    -0.248 OA
ATOM     19  C   UNL     1      27.873   8.210  -7.375  1.00  0.00     0.319 C
ATOM     20  N   UNL     1      26.683   8.611  -7.950  1.00  0.00    -0.332 N
ATOM     21  H   UNL     1      26.767   6.872  -6.334  1.00  0.00     0.172 HD
ATOM     22  H   UNL     1      25.809   8.242  -7.604  1.00  0.00     0.165 HD
BRANCH  20  23
ATOM     23  C   UNL     1      26.625   9.576  -9.028  1.00  0.00     0.042 C
ATOM     24  C   UNL     1      26.655  11.053  -8.665  1.00  0.00     0.031 C
ATOM     25  C   UNL     1      25.370  10.435  -9.106  1.00  0.00     0.031 C
BRANCH  23  26
ATOM     26  C   UNL     1      27.146   9.048 -10.366  1.00  0.00     0.028 C
BRANCH  26  27
ATOM     27  C   UNL     1      28.193   9.892 -11.097  1.00  0.00     0.002 C
ATOM     28  G   UNL     1      27.629  10.656 -12.300  1.00  0.00     0.000 C
ENDBRANCH  26  27
ENDBRANCH  23  26
ENDBRANCH  20  23
ENDBRANCH  12  17
ENDBRANCH   1  11
BRANCH   6  29
ATOM     29  C   UNL     1      32.211  14.269  -4.789  1.00  0.00     0.120 C
BRANCH  29  30
ATOM     30  N   UNL     1      30.949  15.031  -4.785  1.00  0.00    -0.292 NA
ATOM     31  C   UNL     1      30.929  16.064  -3.731  1.00  0.00     0.113 C
ATOM     32  C   UNL     1      30.623  15.624  -6.115  1.00  0.00     0.083 C
ATOM     33  C   UNL     1      31.678  17.352  -4.094  1.00  0.00     0.175 C
ATOM     34  C   UNL     1      31.357  16.959  -6.384  1.00  0.00     0.179 C
ATOM     35  O   UNL     1      31.185  17.902  -5.320  1.00  0.00    -0.378 OA
BRANCH  32  36
ATOM     36  C   UNL     1      29.081  15.742  -6.212  1.00  0.00     0.021 C
BRANCH  36  37
ATOM     37  C   UNL     1      28.369  14.382  -6.201  1.00  0.00     0.002 C
BRANCH  37  38
ATOM     38  C   UNL     1      27.418  14.224  -5.009  1.00  0.00     0.000 C
BRANCH  38  39
ATOM     39  C   UNL     1      25.976  13.916  -5.434  1.00  0.00     0.000 C
ATOM     40  G   UNL     1      25.782  14.148  -6.937  1.00  0.00     0.000 C
ENDBRANCH  38  39
ENDBRANCH  37  38
ENDBRANCH  36  37
ENDBRANCH  32  36
ENDBRANCH  29  30
ENDBRANCH   6  29
TORSDOF 0
ENDMDL
MODEL 2
REMARK VINA RESULT:      -7.4      2.114      7.486
REMARK SMILES O=C1Nc2c[nH]nc2-c2nc3ccc(cc3[nH]2)CN2CCOC[C@@H]2CCCCCCC2(CC2)N1
REMARK SMILES IDX 9 1 10 2 11 3 12 4 13 5 14 6 15 7 16 8 17 9 8 11 4 12 5 13
REMARK SMILES IDX 6 14 7 15 3 17 1 18 2 19 34 20 31 23 32 24 33 25 30 26 29 27
REMARK SMILES IDX 18 29 19 30 20 31 24 32 21 33 23 34 22 35 25 36 26 37 27 38
REMARK SMILES IDX 28 39
REMARK H PARENT 17 10 6 16 3 21 34 22
REMARK Flexibility Score:   58.900
ROOT
ATOM      1  C   UNL     1      32.815  10.616  -3.260  1.00  0.00     0.161 A
ATOM      2  N   UNL     1      32.737   9.292  -3.250  1.00  0.00    -0.227 NA
ATOM      3  C   UNL     1      31.599   8.976  -3.952  1.00  0.00     0.089 A
ATOM      4  C   UNL     1      30.989   7.737  -4.193  1.00  0.00     0.031 A
ATOM      5  C   UNL     1      29.773   7.708  -4.900  1.00  0.00     0.007 A
ATOM      6  C   UNL     1      29.176   8.886  -5.384  1.00  0.00    -0.032 A
ATOM      7  C   UNL     1      29.833  10.118  -5.210  1.00  0.00     0.033 A
ATOM      8  C   UNL     1      31.006  10.118  -4.460  1.00  0.00     0.066 A
ATOM      9  N   UNL     1      31.802  11.134  -4.015  1.00  0.00    -0.337 N
ATOM     10  H   UNL     1      31.588  12.118  -4.097  1.00  0.00     0.168 HD
ENDROOT
BRANCH   1  11
ATOM     11  C   UNL     1      33.942  11.453  -2.522  1.00  0.00     0.151 A
ATOM     12  C   UNL     1      34.098  12.861  -2.263  1.00  0.00     0.092 A
ATOM     13  C   UNL     1      35.363  12.956  -1.715  1.00  0.00     0.132 A
ATOM     14  N   UNL     1      35.844  11.691  -1.607  1.00  0.00    -0.283 N
ATOM     15  N   UNL     1      35.012  10.768  -2.075  1.00  0.00    -0.170 NA
ATOM     16  H   UNL     1      36.732  11.381  -1.225  1.00  0.00     0.189 HD
BRANCH  12  17
ATOM     17  N   UNL     1      33.366  14.033  -2.418  1.00  0.00    -0.304 N
ATOM     18  O   UNL     1      32.737  13.968  -4.639  1.00  0.00    -0.248 OA
ATOM     19  C   UNL     1      32.771  14.525  -3.550  1.00  0.00     0.319 C
ATOM     20  N   UNL     1      32.186  15.758  -3.340  1.00  0.00    -0.332 N
ATOM     21  H   UNL     1      33.132  14.505  -1.559  1.00  0.00     0.172 HD
ATOM     22  H   UNL     1      32.254  16.199  -2.435  1.00  0.00     0.165 HD
BRANCH  20  23
ATOM     23  C   UNL     1      31.490  16.478  -4.387  1.00  0.00     0.042 C
ATOM     24  C   UNL     1      32.326  17.176  -5.450  1.00  0.00     0.031 C
ATOM     25  C   UNL     1      31.655  17.992  -4.396  1.00  0.00     0.031 C
BRANCH  23  26
ATOM     26  C   UNL     1      30.075  15.967  -4.660  1.00  0.00     0.028 C
BRANCH  26  27
ATOM     27  C   UNL     1      29.816  15.299  -6.012  1.00  0.00     0.002 C
ATOM     28  G   UNL     1      29.023  16.179  -6.986  1.00  0.00     0.000 C
ENDBRANCH  26  27
ENDBRANCH  23  26
ENDBRANCH  20  23
ENDBRANCH  12  17
ENDBRANCH   1  11
BRANCH   6  29
ATOM     29  C   UNL     1      27.840   8.811  -6.114  1.00  0.00     0.120 C
BRANCH  29  30
ATOM     30  N   UNL     1      27.891   9.280  -7.511  1.00  0.00    -0.292 NA
ATOM     31  C   UNL     1      28.584   8.319  -8.391  1.00  0.00     0.113 C
ATOM     32  C   UNL     1      26.548   9.628  -8.058  1.00  0.00     0.083 C
ATOM     33  C   UNL     1      27.716   7.138  -8.845  1.00  0.00     0.175 C
ATOM     34  C   UNL     1      25.758   8.398  -8.565  1.00  0.00     0.179 C
ATOM     35  O   UNL     1      26.518   7.598  -9.477  1.00  0.00    -0.378 OA
BRANCH  32  36
ATOM     36  C   UNL     1      26.749  10.716  -9.143  1.00  0.00     0.021 C
BRANCH  36  37
ATOM     37  C   UNL     1      26.003  12.021  -8.835  1.00  0.00     0.002 C
BRANCH  37  38
ATOM     38  C   UNL     1      26.883  13.048  -8.112  1.00  0.00     0.000 C
BRANCH  38  39
ATOM     39  C   UNL     1      26.376  13.379  -6.702  1.00  0.00     0.000 C
ATOM     40  G   UNL     1      27.224  12.680  -5.632  1.00  0.00     0.000 C
ENDBRANCH  38  39
ENDBRANCH  37  38
ENDBRANCH  36  37
ENDBRANCH  32  36
ENDBRANCH  29  30
ENDBRANCH   6  29
TORSDOF 0
ENDMDL
MODEL 3
REMARK VINA RESULT:      -7.3      1.053      1.487
REMARK SMILES O=C1Nc2c[nH]nc2-c2nc3ccc(cc3[nH]2)CN2CCOC[C@@H]2CCCCCCC2(CC2)N1
REMARK SMILES IDX 9 1 10 2 11 3 12 4 13 5 14 6 15 7 16 8 17 9 8 11 4 12 5 13
REMARK SMILES IDX 6 14 7 15 3 17 1 18 2 19 34 20 31 23 32 24 33 25 30 26 29 27
REMARK SMILES IDX 18 29 19 30 20 31 24 32 21 33 23 34 22 35 25 36 26 37 27 38
REMARK SMILES IDX 28 39
REMARK H PARENT 17 10 6 16 3 21 34 22
REMARK Flexibility Score:   58.900
ROOT
ATOM      1  C   UNL     1      30.595   8.386  -4.608  1.00  0.00     0.161 A
ATOM      2  N   UNL     1      31.583   8.597  -3.747  1.00  0.00    -0.227 NA
ATOM      3  C   UNL     1      31.861   9.940  -3.813  1.00  0.00     0.089 A
ATOM      4  C   UNL     1      32.855  10.699  -3.180  1.00  0.00     0.031 A
ATOM      5  C   UNL     1      32.955  12.069  -3.483  1.00  0.00     0.007 A
ATOM      6  C   UNL     1      32.070  12.691  -4.382  1.00  0.00    -0.032 A
ATOM      7  C   UNL     1      31.024  11.942  -4.953  1.00  0.00     0.033 A
ATOM      8  C   UNL     1      30.986  10.578  -4.674  1.00  0.00     0.066 A
ATOM      9  N   UNL     1      30.194   9.573  -5.151  1.00  0.00    -0.337 N
ATOM     10  H   UNL     1      29.526   9.668  -5.903  1.00  0.00     0.168 HD
ENDROOT
BRANCH   1  11
ATOM     11  C   UNL     1      29.968   6.965  -4.923  1.00  0.00     0.151 A
ATOM     12  C   UNL     1      29.082   6.498  -5.957  1.00  0.00     0.092 A
ATOM     13  C   UNL     1      28.795   5.198  -5.585  1.00  0.00     0.132 A
ATOM     14  N   UNL     1      29.526   4.937  -4.470  1.00  0.00    -0.283 N
ATOM     15  N   UNL     1      30.244   5.973  -4.054  1.00  0.00    -0.170 NA
ATOM     16  H   UNL     1      29.583   4.074  -3.938  1.00  0.00     0.189 HD
BRANCH  12  17
ATOM     17  N   UNL     1      28.495   6.985  -7.120  1.00  0.00    -0.304 N
ATOM     18  O   UNL     1      27.261   8.787  -6.371  1.00  0.00    -0.248 OA
ATOM     19  C   UNL     1      27.631   8.039  -7.265  1.00  0.00     0.319 C
ATOM     20  N   UNL     1      27.199   8.186  -8.568  1.00  0.00    -0.332 N
ATOM     21  H   UNL     1      28.861   6.597  -7.976  1.00  0.00     0.172 HD
ATOM     22  H   UNL     1      27.506   7.536  -9.276  1.00  0.00     0.165 HD
BRANCH  20  23
ATOM     23  C   UNL     1      26.284   9.235  -8.971  1.00  0.00     0.042 C
ATOM     24  C   UNL     1      24.814   9.074  -8.615  1.00  0.00     0.031 C
ATOM     25  C   UNL     1      25.250   8.867 -10.026  1.00  0.00     0.031 C
BRANCH  23  26
ATOM     26  C   UNL     1      26.943  10.605  -9.142  1.00  0.00     0.028 C
BRANCH  26  27
ATOM     27  C   UNL     1      26.492  11.725  -8.202  1.00  0.00     0.002 C
ATOM     28  G   UNL     1      25.604  12.774  -8.883  1.00  0.00     0.000 C
ENDBRANCH  26  27
ENDBRANCH  23  26
ENDBRANCH  20  23
ENDBRANCH  12  17
ENDBRANCH   1  11
BRANCH   6  29
ATOM     29  C   UNL     1      32.238  14.170  -4.707  1.00  0.00     0.120 C
BRANCH  29  30
ATOM     30  N   UNL     1      31.100  15.010  -4.289  1.00  0.00    -0.292 NA
ATOM     31  C   UNL     1      31.542  16.223  -3.574  1.00  0.00     0.113 C
ATOM     32  C   UNL     1      30.190  15.360  -5.418  1.00  0.00     0.083 C
ATOM     33  C   UNL     1      32.013  17.359  -4.490  1.00  0.00     0.175 C
ATOM     34  C   UNL     1      30.690  16.562  -6.255  1.00  0.00     0.179 C
ATOM     35  O   UNL     1      31.003  17.700  -5.444  1.00  0.00    -0.378 OA
BRANCH  32  36
ATOM     36  C   UNL     1      28.772  15.571  -4.830  1.00  0.00     0.021 C
BRANCH  36  37
ATOM     37  C   UNL     1      27.801  14.432  -5.171  1.00  0.00     0.002 C
BRANCH  37  38
ATOM     38  C   UNL     1      26.588  14.912  -5.978  1.00  0.00     0.000 C
BRANCH  38  39
ATOM     39  C   UNL     1      26.794  16.303  -6.593  1.00  0.00     0.000 C
ATOM     40  G   UNL     1      26.221  16.370  -8.013  1.00  0.00     0.000 C
ENDBRANCH  38  39
ENDBRANCH  37  38
ENDBRANCH  36  37
ENDBRANCH  32  36
ENDBRANCH  29  30
ENDBRANCH   6  29
TORSDOF 0
ENDMDL
MODEL 4
REMARK VINA RESULT:      -7.3      0.775      1.133
REMARK SMILES O=C1Nc2c[nH]nc2-c2nc3ccc(cc3[nH]2)CN2CCOC[C@@H]2CCCCCCC2(CC2)N1
REMARK SMILES IDX 9 1 10 2 11 3 12 4 13 5 14 6 15 7 16 8 17 9 8 11 4 12 5 13
REMARK SMILES IDX 6 14 7 15 3 17 1 18 2 19 34 20 31 23 32 24 33 25 30 26 29 27
REMARK SMILES IDX 18 29 19 30 20 31 24 32 21 33 23 34 22 35 25 36 26 37 27 38
REMARK SMILES IDX 28 39
REMARK H PARENT 17 10 6 16 3 21 34 22
REMARK Flexibility Score:   58.900
ROOT
ATOM      1  C   UNL     1      30.451   8.736  -4.689  1.00  0.00     0.161 A
ATOM      2  N   UNL     1      31.440   8.929  -3.826  1.00  0.00    -0.227 NA
ATOM      3  C   UNL     1      31.758  10.263  -3.908  1.00  0.00     0.089 A
ATOM      4  C   UNL     1      32.771  11.000  -3.280  1.00  0.00     0.031 A
ATOM      5  C   UNL     1      32.913  12.363  -3.601  1.00  0.00     0.007 A
ATOM      6  C   UNL     1      32.053  12.997  -4.514  1.00  0.00    -0.032 A
ATOM      7  C   UNL     1      30.988  12.272  -5.081  1.00  0.00     0.033 A
ATOM      8  C   UNL     1      30.908  10.914  -4.783  1.00  0.00     0.066 A
ATOM      9  N   UNL     1      30.089   9.927  -5.251  1.00  0.00    -0.337 N
ATOM     10  H   UNL     1      29.428  10.030  -6.008  1.00  0.00     0.168 HD
ENDROOT
BRANCH   1  11
ATOM     11  C   UNL     1      29.783   7.329  -4.988  1.00  0.00     0.151 A
ATOM     12  C   UNL     1      28.575   6.950  -5.672  1.00  0.00     0.092 A
ATOM     13  C   UNL     1      28.487   5.588  -5.455  1.00  0.00     0.132 A
ATOM     14  N   UNL     1      29.600   5.224  -4.769  1.00  0.00    -0.283 N
ATOM     15  N   UNL     1      30.400   6.244  -4.481  1.00  0.00    -0.170 NA
ATOM     16  H   UNL     1      29.881   4.299  -4.461  1.00  0.00     0.189 HD
BRANCH  12  17
ATOM     17  N   UNL     1      27.569   7.557  -6.417  1.00  0.00    -0.304 N
ATOM     18  O   UNL     1      28.735   8.632  -8.095  1.00  0.00    -0.248 OA
ATOM     19  C   UNL     1      27.690   8.354  -7.525  1.00  0.00     0.319 C
ATOM     20  N   UNL     1      26.470   8.836  -7.958  1.00  0.00    -0.332 N
ATOM     21  H   UNL     1      26.633   7.258  -6.191  1.00  0.00     0.172 HD
ATOM     22  H   UNL     1      25.629   8.605  -7.449  1.00  0.00     0.165 HD
BRANCH  20  23
ATOM     23  C   UNL     1      26.339   9.697  -9.116  1.00  0.00     0.042 C
ATOM     24  C   UNL     1      26.752  11.154  -8.971  1.00  0.00     0.031 C
ATOM     25  C   UNL     1      25.302  10.807  -9.024  1.00  0.00     0.031 C
BRANCH  23  26
ATOM     26  C   UNL     1      26.396   8.955 -10.453  1.00  0.00     0.028 C
BRANCH  26  27
ATOM     27  C   UNL     1      25.728   7.581 -10.525  1.00  0.00     0.002 C
ATOM     28  G   UNL     1      26.723   6.425 -10.681  1.00  0.00     0.000 C
ENDBRANCH  26  27
ENDBRANCH  23  26
ENDBRANCH  20  23
ENDBRANCH  12  17
ENDBRANCH   1  11
BRANCH   6  29
ATOM     29  C   UNL     1      32.267  14.466  -4.859  1.00  0.00     0.120 C
BRANCH  29  30
ATOM     30  N   UNL     1      31.069  15.307  -4.675  1.00  0.00    -0.292 NA
ATOM     31  C   UNL     1      31.332  16.455  -3.786  1.00  0.00     0.113 C
ATOM     32  C   UNL     1      30.472  15.759  -5.964  1.00  0.00     0.083 C
ATOM     33  C   UNL     1      32.027  17.638  -4.471  1.00  0.00     0.175 C
ATOM     34  C   UNL     1      31.175  17.001  -6.561  1.00  0.00     0.179 C
ATOM     35  O   UNL     1      31.289  18.071  -5.618  1.00  0.00    -0.378 OA
BRANCH  32  36
ATOM     36  C   UNL     1      28.954  15.969  -5.731  1.00  0.00     0.021 C
BRANCH  36  37
ATOM     37  C   UNL     1      28.315  14.863  -4.879  1.00  0.00     0.002 C
BRANCH  37  38
ATOM     38  C   UNL     1      26.782  14.901  -4.917  1.00  0.00     0.000 C
BRANCH  38  39
ATOM     39  C   UNL     1      26.169  13.621  -5.499  1.00  0.00     0.000 C
ATOM     40  G   UNL     1      27.228  12.524  -5.660  1.00  0.00     0.000 C
ENDBRANCH  38  39
ENDBRANCH  37  38
ENDBRANCH  36  37
ENDBRANCH  32  36
ENDBRANCH  29  30
ENDBRANCH   6  29
TORSDOF 0
ENDMDL
MODEL 5
REMARK VINA RESULT:      -7.3      3.526      8.952
REMARK SMILES O=C1Nc2c[nH]nc2-c2nc3ccc(cc3[nH]2)CN2CCOC[C@@H]2CCCCCCC2(CC2)N1
REMARK SMILES IDX 9 1 10 2 11 3 12 4 13 5 14 6 15 7 16 8 17 9 8 11 4 12 5 13
REMARK SMILES IDX 6 14 7 15 3 17 1 18 2 19 34 20 31 23 32 24 33 25 30 26 29 27
REMARK SMILES IDX 18 29 19 30 20 31 24 32 21 33 23 34 22 35 25 36 26 37 27 38
REMARK SMILES IDX 28 39
REMARK H PARENT 17 10 6 16 3 21 34 22
REMARK Flexibility Score:   58.900
ROOT
ATOM      1  C   UNL     1      31.086  18.003  -4.936  1.00  0.00     0.161 A
ATOM      2  N   UNL     1      31.719  17.565  -3.855  1.00  0.00    -0.227 NA
ATOM      3  C   UNL     1      31.825  16.204  -4.006  1.00  0.00     0.089 A
ATOM      4  C   UNL     1      32.333  15.226  -3.140  1.00  0.00     0.031 A
ATOM      5  C   UNL     1      32.258  13.875  -3.527  1.00  0.00     0.007 A
ATOM      6  C   UNL     1      31.708  13.494  -4.763  1.00  0.00    -0.032 A
ATOM      7  C   UNL     1      31.273  14.485  -5.663  1.00  0.00     0.033 A
ATOM      8  C   UNL     1      31.312  15.807  -5.228  1.00  0.00     0.066 A
ATOM      9  N   UNL     1      30.863  16.965  -5.794  1.00  0.00    -0.337 N
ATOM     10  H   UNL     1      30.314  17.023  -6.640  1.00  0.00     0.168 HD
ENDROOT
BRANCH   1  11
ATOM     11  C   UNL     1      30.683  19.516  -5.187  1.00  0.00     0.151 A
ATOM     12  C   UNL     1      29.868  20.154  -6.188  1.00  0.00     0.092 A
ATOM     13  C   UNL     1      30.038  21.503  -5.941  1.00  0.00     0.132 A
ATOM     14  N   UNL     1      30.825  21.607  -4.839  1.00  0.00    -0.283 N
ATOM     15  N   UNL     1      31.221  20.433  -4.360  1.00  0.00    -0.170 NA
ATOM     16  H   UNL     1      31.135  22.445  -4.359  1.00  0.00     0.189 HD
BRANCH  12  17
ATOM     17  N   UNL     1      29.040  19.785  -7.243  1.00  0.00    -0.304 N
ATOM     18  O   UNL     1      27.389  18.548  -6.207  1.00  0.00    -0.248 OA
ATOM     19  C   UNL     1      27.909  19.013  -7.211  1.00  0.00     0.319 C
ATOM     20  N   UNL     1      27.385  18.801  -8.471  1.00  0.00    -0.332 N
ATOM     21  H   UNL     1      29.224  20.260  -8.113  1.00  0.00     0.172 HD
ATOM     22  H   UNL     1      27.854  19.181  -9.281  1.00  0.00     0.165 HD
BRANCH  20  23
ATOM     23  C   UNL     1      26.186  18.019  -8.695  1.00  0.00     0.042 C
ATOM     24  C   UNL     1      25.252  18.452  -9.815  1.00  0.00     0.031 C
ATOM     25  C   UNL     1      24.861  18.706  -8.398  1.00  0.00     0.031 C
BRANCH  23  26
ATOM     26  C   UNL     1      26.295  16.566  -8.230  1.00  0.00     0.028 C
BRANCH  26  27
ATOM     27  C   UNL     1      27.548  15.788  -8.637  1.00  0.00     0.002 C
ATOM     28  G   UNL     1      27.712  15.643 -10.154  1.00  0.00     0.000 C
ENDBRANCH  26  27
ENDBRANCH  23  26
ENDBRANCH  20  23
ENDBRANCH  12  17
ENDBRANCH   1  11
BRANCH   6  29
ATOM     29  C   UNL     1      31.614  12.016  -5.125  1.00  0.00     0.120 C
BRANCH  29  30
ATOM     30  N   UNL     1      30.951  11.189  -4.099  1.00  0.00    -0.292 NA
ATOM     31  C   UNL     1      29.532  11.555  -3.926  1.00  0.00     0.113 C
ATOM     32  C   UNL     1      31.095   9.726  -4.350  1.00  0.00     0.083 C
ATOM     33  C   UNL     1      28.592  10.958  -4.981  1.00  0.00     0.175 C
ATOM     34  C   UNL     1      30.068   9.176  -5.368  1.00  0.00     0.179 C
ATOM     35  O   UNL     1      28.722   9.534  -5.034  1.00  0.00    -0.378 OA
BRANCH  32  36
ATOM     36  C   UNL     1      31.042   9.006  -2.979  1.00  0.00     0.021 C
BRANCH  36  37
ATOM     37  C   UNL     1      32.187   9.410  -2.040  1.00  0.00     0.002 C
BRANCH  37  38
ATOM     38  C   UNL     1      33.485   8.647  -2.330  1.00  0.00     0.000 C
BRANCH  38  39
ATOM     39  C   UNL     1      34.689   9.577  -2.536  1.00  0.00     0.000 C
ATOM     40  G   UNL     1      34.250  11.045  -2.594  1.00  0.00     0.000 C
ENDBRANCH  38  39
ENDBRANCH  37  38
ENDBRANCH  36  37
ENDBRANCH  32  36
ENDBRANCH  29  30
ENDBRANCH   6  29
TORSDOF 0
ENDMDL
MODEL 6
REMARK VINA RESULT:      -7.3      1.104      1.496
REMARK SMILES O=C1Nc2c[nH]nc2-c2nc3ccc(cc3[nH]2)CN2CCOC[C@@H]2CCCCCCC2(CC2)N1
REMARK SMILES IDX 9 1 10 2 11 3 12 4 13 5 14 6 15 7 16 8 17 9 8 11 4 12 5 13
REMARK SMILES IDX 6 14 7 15 3 17 1 18 2 19 34 20 31 23 32 24 33 25 30 26 29 27
REMARK SMILES IDX 18 29 19 30 20 31 24 32 21 33 23 34 22 35 25 36 26 37 27 38
REMARK SMILES IDX 28 39
REMARK H PARENT 17 10 6 16 3 21 34 22
REMARK Flexibility Score:   58.900
ROOT
ATOM      1  C   UNL     1      30.666   8.443  -4.545  1.00  0.00     0.161 A
ATOM      2  N   UNL     1      31.662   8.639  -3.692  1.00  0.00    -0.227 NA
ATOM      3  C   UNL     1      31.938   9.984  -3.737  1.00  0.00     0.089 A
ATOM      4  C   UNL     1      32.939  10.733  -3.101  1.00  0.00     0.031 A
ATOM      5  C   UNL     1      33.033  12.109  -3.380  1.00  0.00     0.007 A
ATOM      6  C   UNL     1      32.138  12.745  -4.259  1.00  0.00    -0.032 A
ATOM      7  C   UNL     1      31.086  12.005  -4.831  1.00  0.00     0.033 A
ATOM      8  C   UNL     1      31.053  10.637  -4.577  1.00  0.00     0.066 A
ATOM      9  N   UNL     1      30.258   9.639  -5.063  1.00  0.00    -0.337 N
ATOM     10  H   UNL     1      29.581   9.746  -5.805  1.00  0.00     0.168 HD
ENDROOT
BRANCH   1  11
ATOM     11  C   UNL     1      30.036   7.026  -4.878  1.00  0.00     0.151 A
ATOM     12  C   UNL     1      29.165   6.570  -5.930  1.00  0.00     0.092 A
ATOM     13  C   UNL     1      28.867   5.270  -5.569  1.00  0.00     0.132 A
ATOM     14  N   UNL     1      29.578   4.998  -4.445  1.00  0.00    -0.283 N
ATOM     15  N   UNL     1      30.295   6.028  -4.011  1.00  0.00    -0.170 NA
ATOM     16  H   UNL     1      29.623   4.132  -3.918  1.00  0.00     0.189 HD
BRANCH  12  17
ATOM     17  N   UNL     1      28.599   7.067  -7.099  1.00  0.00    -0.304 N
ATOM     18  O   UNL     1      26.435   7.562  -6.466  1.00  0.00    -0.248 OA
ATOM     19  C   UNL     1      27.315   7.494  -7.312  1.00  0.00     0.319 C
ATOM     20  N   UNL     1      27.096   7.857  -8.626  1.00  0.00    -0.332 N
ATOM     21  H   UNL     1      29.255   7.263  -7.839  1.00  0.00     0.172 HD
ATOM     22  H   UNL     1      27.838   7.765  -9.304  1.00  0.00     0.165 HD
BRANCH  20  23
ATOM     23  C   UNL     1      25.816   8.347  -9.096  1.00  0.00     0.042 C
ATOM     24  C   UNL     1      24.675   7.349  -9.225  1.00  0.00     0.031 C
ATOM     25  C   UNL     1      25.353   7.846 -10.457  1.00  0.00     0.031 C
BRANCH  23  26
ATOM     26  C   UNL     1      25.580   9.834  -8.825  1.00  0.00     0.028 C
BRANCH  26  27
ATOM     27  C   UNL     1      26.783  10.771  -8.947  1.00  0.00     0.002 C
ATOM     28  G   UNL     1      26.775  11.613 -10.229  1.00  0.00     0.000 C
ENDBRANCH  26  27
ENDBRANCH  23  26
ENDBRANCH  20  23
ENDBRANCH  12  17
ENDBRANCH   1  11
BRANCH   6  29
ATOM     29  C   UNL     1      32.301  14.229  -4.559  1.00  0.00     0.120 C
BRANCH  29  30
ATOM     30  N   UNL     1      31.043  14.997  -4.492  1.00  0.00    -0.292 NA
ATOM     31  C   UNL     1      31.150  16.153  -3.581  1.00  0.00     0.113 C
ATOM     32  C   UNL     1      30.548  15.422  -5.832  1.00  0.00     0.083 C
ATOM     33  C   UNL     1      31.838  17.380  -4.194  1.00  0.00     0.175 C
ATOM     34  C   UNL     1      31.231  16.707  -6.358  1.00  0.00     0.179 C
ATOM     35  O   UNL     1      31.189  17.776  -5.406  1.00  0.00    -0.378 OA
BRANCH  32  36
ATOM     36  C   UNL     1      29.005  15.541  -5.748  1.00  0.00     0.021 C
BRANCH  36  37
ATOM     37  C   UNL     1      28.299  15.182  -7.062  1.00  0.00     0.002 C
BRANCH  37  38
ATOM     38  C   UNL     1      27.610  13.812  -7.007  1.00  0.00     0.000 C
BRANCH  38  39
ATOM     39  C   UNL     1      27.399  13.309  -5.573  1.00  0.00     0.000 C
ATOM     40  G   UNL     1      27.500  11.780  -5.504  1.00  0.00     0.000 C
ENDBRANCH  38  39
ENDBRANCH  37  38
ENDBRANCH  36  37
ENDBRANCH  32  36
ENDBRANCH  29  30
ENDBRANCH   6  29
TORSDOF 0
ENDMDL
MODEL 7
REMARK VINA RESULT:      -7.2      1.181      1.750
REMARK SMILES O=C1Nc2c[nH]nc2-c2nc3ccc(cc3[nH]2)CN2CCOC[C@@H]2CCCCCCC2(CC2)N1
REMARK SMILES IDX 9 1 10 2 11 3 12 4 13 5 14 6 15 7 16 8 17 9 8 11 4 12 5 13
REMARK SMILES IDX 6 14 7 15 3 17 1 18 2 19 34 20 31 23 32 24 33 25 30 26 29 27
REMARK SMILES IDX 18 29 19 30 20 31 24 32 21 33 23 34 22 35 25 36 26 37 27 38
REMARK SMILES IDX 28 39
REMARK H PARENT 17 10 6 16 3 21 34 22
REMARK Flexibility Score:   58.900
ROOT
ATOM      1  C   UNL     1      30.699   8.250  -4.456  1.00  0.00     0.161 A
ATOM      2  N   UNL     1      31.721   8.350  -3.615  1.00  0.00    -0.227 NA
ATOM      3  C   UNL     1      32.036   9.686  -3.562  1.00  0.00     0.089 A
ATOM      4  C   UNL     1      33.073  10.354  -2.896  1.00  0.00     0.031 A
ATOM      5  C   UNL     1      33.203  11.744  -3.069  1.00  0.00     0.007 A
ATOM      6  C   UNL     1      32.307  12.472  -3.873  1.00  0.00    -0.032 A
ATOM      7  C   UNL     1      31.220  11.809  -4.474  1.00  0.00     0.033 A
ATOM      8  C   UNL     1      31.152  10.427  -4.326  1.00  0.00     0.066 A
ATOM      9  N   UNL     1      30.315   9.493  -4.868  1.00  0.00    -0.337 N
ATOM     10  H   UNL     1      29.625   9.678  -5.582  1.00  0.00     0.168 HD
ENDROOT
BRANCH   1  11
ATOM     11  C   UNL     1      30.020   6.882  -4.882  1.00  0.00     0.151 A
ATOM     12  C   UNL     1      29.173   6.518  -5.988  1.00  0.00     0.092 A
ATOM     13  C   UNL     1      28.800   5.217  -5.703  1.00  0.00     0.132 A
ATOM     14  N   UNL     1      29.450   4.860  -4.566  1.00  0.00    -0.283 N
ATOM     15  N   UNL     1      30.195   5.833  -4.054  1.00  0.00    -0.170 NA
ATOM     16  H   UNL     1      29.433   3.969  -4.080  1.00  0.00     0.189 HD
BRANCH  12  17
ATOM     17  N   UNL     1      28.680   7.095  -7.152  1.00  0.00    -0.304 N
ATOM     18  O   UNL     1      27.028   8.510  -6.379  1.00  0.00    -0.248 OA
ATOM     19  C   UNL     1      27.661   8.000  -7.293  1.00  0.00     0.319 C
ATOM     20  N   UNL     1      27.403   8.298  -8.616  1.00  0.00    -0.332 N
ATOM     21  H   UNL     1      29.234   6.927  -7.978  1.00  0.00     0.172 HD
ATOM     22  H   UNL     1      27.930   7.840  -9.346  1.00  0.00     0.165 HD
BRANCH  20  23
ATOM     23  C   UNL     1      26.374   9.234  -9.018  1.00  0.00     0.042 C
ATOM     24  C   UNL     1      24.944   8.954  -8.579  1.00  0.00     0.031 C
ATOM     25  C   UNL     1      25.331   8.719 -10.000  1.00  0.00     0.031 C
BRANCH  23  26
ATOM     26  C   UNL     1      26.888  10.650  -9.285  1.00  0.00     0.028 C
BRANCH  26  27
ATOM     27  C   UNL     1      26.307  11.782  -8.435  1.00  0.00     0.002 C
ATOM     28  G   UNL     1      27.002  11.947  -7.078  1.00  0.00     0.000 C
ENDBRANCH  26  27
ENDBRANCH  23  26
ENDBRANCH  20  23
ENDBRANCH  12  17
ENDBRANCH   1  11
BRANCH   6  29
ATOM     29  C   UNL     1      32.508  13.971  -4.061  1.00  0.00     0.120 C
BRANCH  29  30
ATOM     30  N   UNL     1      31.276  14.702  -4.414  1.00  0.00    -0.292 NA
ATOM     31  C   UNL     1      31.078  15.893  -3.565  1.00  0.00     0.113 C
ATOM     32  C   UNL     1      31.207  15.062  -5.859  1.00  0.00     0.083 C
ATOM     33  C   UNL     1      31.898  17.116  -3.993  1.00  0.00     0.175 C
ATOM     34  C   UNL     1      31.995  16.348  -6.206  1.00  0.00     0.179 C
ATOM     35  O   UNL     1      31.645  17.449  -5.361  1.00  0.00    -0.378 OA
BRANCH  32  36
ATOM     36  C   UNL     1      29.711  15.137  -6.254  1.00  0.00     0.021 C
BRANCH  36  37
ATOM     37  C   UNL     1      28.791  14.385  -5.283  1.00  0.00     0.002 C
BRANCH  37  38
ATOM     38  C   UNL     1      27.605  15.237  -4.814  1.00  0.00     0.000 C
BRANCH  38  39
ATOM     39  C   UNL     1      27.550  16.610  -5.498  1.00  0.00     0.000 C
ATOM     40  G   UNL     1      28.083  17.710  -4.572  1.00  0.00     0.000 C
ENDBRANCH  38  39
ENDBRANCH  37  38
ENDBRANCH  36  37
ENDBRANCH  32  36
ENDBRANCH  29  30
ENDBRANCH   6  29
TORSDOF 0
ENDMDL
MODEL 8
REMARK VINA RESULT:      -7.1      2.025      7.437
REMARK SMILES O=C1Nc2c[nH]nc2-c2nc3ccc(cc3[nH]2)CN2CCOC[C@@H]2CCCCCCC2(CC2)N1
REMARK SMILES IDX 9 1 10 2 11 3 12 4 13 5 14 6 15 7 16 8 17 9 8 11 4 12 5 13
REMARK SMILES IDX 6 14 7 15 3 17 1 18 2 19 34 20 31 23 32 24 33 25 30 26 29 27
REMARK SMILES IDX 18 29 19 30 20 31 24 32 21 33 23 34 22 35 25 36 26 37 27 38
REMARK SMILES IDX 28 39
REMARK H PARENT 17 10 6 16 3 21 34 22
REMARK Flexibility Score:   58.900
ROOT
ATOM      1  C   UNL     1      31.969  11.635  -3.813  1.00  0.00     0.161 A
ATOM      2  N   UNL     1      32.397  10.455  -3.382  1.00  0.00    -0.227 NA
ATOM      3  C   UNL     1      31.572   9.520  -3.959  1.00  0.00     0.089 A
ATOM      4  C   UNL     1      31.516   8.129  -3.798  1.00  0.00     0.031 A
ATOM      5  C   UNL     1      30.513   7.411  -4.473  1.00  0.00     0.007 A
ATOM      6  C   UNL     1      29.587   8.053  -5.315  1.00  0.00    -0.032 A
ATOM      7  C   UNL     1      29.699   9.439  -5.536  1.00  0.00     0.033 A
ATOM      8  C   UNL     1      30.668  10.127  -4.812  1.00  0.00     0.066 A
ATOM      9  N   UNL     1      30.951  11.459  -4.706  1.00  0.00    -0.337 N
ATOM     10  H   UNL     1      30.394  12.204  -5.101  1.00  0.00     0.168 HD
ENDROOT
BRANCH   1  11
ATOM     11  C   UNL     1      32.582  13.028  -3.369  1.00  0.00     0.151 A
ATOM     12  C   UNL     1      32.018  14.348  -3.255  1.00  0.00     0.092 A
ATOM     13  C   UNL     1      33.108  15.147  -2.964  1.00  0.00     0.132 A
ATOM     14  N   UNL     1      34.182  14.324  -2.848  1.00  0.00    -0.283 N
ATOM     15  N   UNL     1      33.897  13.048  -3.078  1.00  0.00    -0.170 NA
ATOM     16  H   UNL     1      35.141  14.563  -2.617  1.00  0.00     0.189 HD
BRANCH  12  17
ATOM     17  N   UNL     1      30.774  14.959  -3.363  1.00  0.00    -0.304 N
ATOM     18  O   UNL     1      30.015  14.246  -5.423  1.00  0.00    -0.248 OA
ATOM     19  C   UNL     1      29.883  14.906  -4.403  1.00  0.00     0.319 C
ATOM     20  N   UNL     1      28.775  15.700  -4.183  1.00  0.00    -0.332 N
ATOM     21  H   UNL     1      30.432  15.379  -2.513  1.00  0.00     0.172 HD
ATOM     22  H   UNL     1      28.710  16.251  -3.339  1.00  0.00     0.165 HD
BRANCH  20  23
ATOM     23  C   UNL     1      27.690  15.805  -5.137  1.00  0.00     0.042 C
ATOM     24  C   UNL     1      27.993  16.418  -6.496  1.00  0.00     0.031 C
ATOM     25  C   UNL     1      27.228  17.212  -5.490  1.00  0.00     0.031 C
BRANCH  23  26
ATOM     26  C   UNL     1      26.576  14.777  -4.930  1.00  0.00     0.028 C
BRANCH  26  27
ATOM     27  C   UNL     1      26.492  13.619  -5.927  1.00  0.00     0.002 C
ATOM     28  G   UNL     1      27.341  12.406  -5.527  1.00  0.00     0.000 C
ENDBRANCH  26  27
ENDBRANCH  23  26
ENDBRANCH  20  23
ENDBRANCH  12  17
ENDBRANCH   1  11
BRANCH   6  29
ATOM     29  C   UNL     1      28.495   7.240  -5.998  1.00  0.00     0.120 C
BRANCH  29  30
ATOM     30  N   UNL     1      28.366   7.501  -7.443  1.00  0.00    -0.292 NA
ATOM     31  C   UNL     1      28.263   6.252  -8.224  1.00  0.00     0.113 C
ATOM     32  C   UNL     1      27.242   8.425  -7.770  1.00  0.00     0.083 C
ATOM     33  C   UNL     1      26.862   5.629  -8.236  1.00  0.00     0.175 C
ATOM     34  C   UNL     1      25.869   7.716  -7.839  1.00  0.00     0.179 C
ATOM     35  O   UNL     1      25.888   6.570  -8.697  1.00  0.00    -0.378 OA
BRANCH  32  36
ATOM     36  C   UNL     1      27.611   9.171  -9.077  1.00  0.00     0.021 C
BRANCH  36  37
ATOM     37  C   UNL     1      26.454  10.005  -9.645  1.00  0.00     0.002 C
BRANCH  37  38
ATOM     38  C   UNL     1      26.233  11.311  -8.872  1.00  0.00     0.000 C
BRANCH  38  39
ATOM     39  C   UNL     1      26.907  12.518  -9.537  1.00  0.00     0.000 C
ATOM     40  G   UNL     1      25.955  13.719  -9.598  1.00  0.00     0.000 C
ENDBRANCH  38  39
ENDBRANCH  37  38
ENDBRANCH  36  37
ENDBRANCH  32  36
ENDBRANCH  29  30
ENDBRANCH   6  29
TORSDOF 0
ENDMDL
MODEL 9
REMARK VINA RESULT:      -7.0      1.241      1.856
REMARK SMILES O=C1Nc2c[nH]nc2-c2nc3ccc(cc3[nH]2)CN2CCOC[C@@H]2CCCCCCC2(CC2)N1
REMARK SMILES IDX 9 1 10 2 11 3 12 4 13 5 14 6 15 7 16 8 17 9 8 11 4 12 5 13
REMARK SMILES IDX 6 14 7 15 3 17 1 18 2 19 34 20 31 23 32 24 33 25 30 26 29 27
REMARK SMILES IDX 18 29 19 30 20 31 24 32 21 33 23 34 22 35 25 36 26 37 27 38
REMARK SMILES IDX 28 39
REMARK H PARENT 17 10 6 16 3 21 34 22
REMARK Flexibility Score:   58.900
ROOT
ATOM      1  C   UNL     1      31.058   9.744  -4.515  1.00  0.00     0.161 A
ATOM      2  N   UNL     1      32.084   9.938  -3.696  1.00  0.00    -0.227 NA
ATOM      3  C   UNL     1      32.331  11.289  -3.714  1.00  0.00     0.089 A
ATOM      4  C   UNL     1      33.342  12.041  -3.097  1.00  0.00     0.031 A
ATOM      5  C   UNL     1      33.398  13.425  -3.342  1.00  0.00     0.007 A
ATOM      6  C   UNL     1      32.456  14.066  -4.166  1.00  0.00    -0.032 A
ATOM      7  C   UNL     1      31.398  13.320  -4.717  1.00  0.00     0.033 A
ATOM      8  C   UNL     1      31.401  11.945  -4.500  1.00  0.00     0.066 A
ATOM      9  N   UNL     1      30.607  10.945  -4.982  1.00  0.00    -0.337 N
ATOM     10  H   UNL     1      29.899  11.058  -5.694  1.00  0.00     0.168 HD
ENDROOT
BRANCH   1  11
ATOM     11  C   UNL     1      30.444   8.325  -4.862  1.00  0.00     0.151 A
ATOM     12  C   UNL     1      29.385   7.911  -5.745  1.00  0.00     0.092 A
ATOM     13  C   UNL     1      29.241   6.562  -5.478  1.00  0.00     0.132 A
ATOM     14  N   UNL     1      30.197   6.235  -4.572  1.00  0.00    -0.283 N
ATOM     15  N   UNL     1      30.939   7.268  -4.189  1.00  0.00    -0.170 NA
ATOM     16  H   UNL     1      30.402   5.327  -4.167  1.00  0.00     0.189 HD
BRANCH  12  17
ATOM     17  N   UNL     1      28.549   8.477  -6.701  1.00  0.00    -0.304 N
ATOM     18  O   UNL     1      29.476   7.770  -8.694  1.00  0.00    -0.248 OA
ATOM     19  C   UNL     1      28.643   8.409  -8.067  1.00  0.00     0.319 C
ATOM     20  N   UNL     1      27.668   9.158  -8.696  1.00  0.00    -0.332 N
ATOM     21  H   UNL     1      27.694   8.871  -6.339  1.00  0.00     0.172 HD
ATOM     22  H   UNL     1      27.011   9.692  -8.146  1.00  0.00     0.165 HD
BRANCH  20  23
ATOM     23  C   UNL     1      27.558   9.238 -10.138  1.00  0.00     0.042 C
ATOM     24  C   UNL     1      28.513  10.166 -10.875  1.00  0.00     0.031 C
ATOM     25  C   UNL     1      27.085  10.567 -10.712  1.00  0.00     0.031 C
BRANCH  23  26
ATOM     26  C   UNL     1      26.961   7.989 -10.788  1.00  0.00     0.028 C
BRANCH  26  27
ATOM     27  C   UNL     1      25.848   7.263 -10.029  1.00  0.00     0.002 C
ATOM     28  G   UNL     1      26.254   5.870  -9.534  1.00  0.00     0.000 C
ENDBRANCH  26  27
ENDBRANCH  23  26
ENDBRANCH  20  23
ENDBRANCH  12  17
ENDBRANCH   1  11
BRANCH   6  29
ATOM     29  C   UNL     1      32.578  15.562  -4.432  1.00  0.00     0.120 C
BRANCH  29  30
ATOM     30  N   UNL     1      31.312  16.206  -4.827  1.00  0.00    -0.292 NA
ATOM     31  C   UNL     1      31.015  17.394  -4.003  1.00  0.00     0.113 C
ATOM     32  C   UNL     1      31.258  16.541  -6.279  1.00  0.00     0.083 C
ATOM     33  C   UNL     1      31.766  18.662  -4.429  1.00  0.00     0.175 C
ATOM     34  C   UNL     1      31.971  17.869  -6.627  1.00  0.00     0.179 C
ATOM     35  O   UNL     1      31.528  18.958  -5.809  1.00  0.00    -0.378 OA
BRANCH  32  36
ATOM     36  C   UNL     1      29.771  16.513  -6.714  1.00  0.00     0.021 C
BRANCH  36  37
ATOM     37  C   UNL     1      29.162  15.104  -6.692  1.00  0.00     0.002 C
BRANCH  37  38
ATOM     38  C   UNL     1      27.641  15.122  -6.490  1.00  0.00     0.000 C
BRANCH  38  39
ATOM     39  C   UNL     1      27.237  15.429  -5.041  1.00  0.00     0.000 C
ATOM     40  G   UNL     1      25.902  14.762  -4.687  1.00  0.00     0.000 C
ENDBRANCH  38  39
ENDBRANCH  37  38
ENDBRANCH  36  37
ENDBRANCH  32  36
ENDBRANCH  29  30
ENDBRANCH   6  29
TORSDOF 0
ENDMDL
