MODEL 1
REMARK VINA RESULT:      -8.1      0.000      0.000
REMARK SMILES CC(C)(C)[C@H]1NC(=O)c2c[nH]c3ncc(nc23)[C@]2(CCCSCC[C@@]3(C#N)CN(C3)C1=O)CC2
REMARK SMILES IDX 9 1 10 2 11 3 12 4 13 5 14 6 15 7 16 8 17 9 7 11 6 12 8 13
REMARK SMILES IDX 5 15 2 16 1 17 3 18 4 19 31 20 32 21 29 22 30 23 28 24 25 25
REMARK SMILES IDX 26 26 27 27 24 28 18 30 34 31 33 32 19 33 20 34 21 35 22 36
REMARK SMILES IDX 23 37
REMARK H PARENT 11 10 6 14
REMARK Flexibility Score:  115.900
ROOT
ATOM      1  C   UNL     1      32.264  14.710  -3.229  1.00  0.00     0.085 A
ATOM      2  C   UNL     1      33.226  15.715  -3.177  1.00  0.00     0.100 A
ATOM      3  N   UNL     1      34.449  15.135  -2.933  1.00  0.00    -0.344 N
ATOM      4  C   UNL     1      34.299  13.784  -2.812  1.00  0.00     0.156 A
ATOM      5  N   UNL     1      35.279  12.907  -2.525  1.00  0.00    -0.235 NA
ATOM      6  C   UNL     1      34.776  11.643  -2.453  1.00  0.00     0.138 A
ATOM      7  C   UNL     1      33.440  11.273  -2.668  1.00  0.00     0.066 A
ATOM      8  N   UNL     1      32.506  12.207  -2.966  1.00  0.00    -0.246 NA
ATOM      9  C   UNL     1      32.959  13.485  -3.023  1.00  0.00     0.120 A
ATOM     10  H   UNL     1      35.333  15.612  -2.833  1.00  0.00     0.168 HD
ENDROOT
BRANCH   1  11
ATOM     11  C   UNL     1      30.830  14.858  -3.432  1.00  0.00     0.255 C
ATOM     12  N   UNL     1      30.475  15.643  -4.511  1.00  0.00    -0.340 N
ATOM     13  O   UNL     1      29.987  14.374  -2.684  1.00  0.00    -0.269 OA
ATOM     14  H   UNL     1      31.195  16.179  -4.973  1.00  0.00     0.164 HD
BRANCH  12  15
ATOM     15  C   UNL     1      29.087  16.052  -4.705  1.00  0.00     0.177 C
BRANCH  15  16
ATOM     16  C   UNL     1      28.410  15.365  -5.930  1.00  0.00    -0.009 C
ATOM     17  C   UNL     1      26.872  15.342  -5.852  1.00  0.00     0.013 C
ATOM     18  C   UNL     1      28.915  13.914  -6.054  1.00  0.00     0.013 C
ATOM     19  C   UNL     1      28.814  16.120  -7.216  1.00  0.00     0.013 C
ENDBRANCH  15  16
BRANCH  15  20
ATOM     20  C   UNL     1      29.130  17.594  -4.799  1.00  0.00     0.245 C
ATOM     21  O   UNL     1      28.115  18.284  -4.680  1.00  0.00    -0.272 OA
BRANCH  20  22
ATOM     22  N   UNL     1      30.343  18.160  -5.070  1.00  0.00    -0.338 N
ATOM     23  C   UNL     1      30.976  18.399  -6.351  1.00  0.00     0.143 C
ATOM     24  C   UNL     1      31.408  18.706  -4.259  1.00  0.00     0.143 C
ATOM     25  C   UNL     1      32.210  18.924  -5.570  1.00  0.00     0.093 C
ATOM     26  C   UNL     1      32.456  20.339  -5.827  1.00  0.00     0.073 C
ATOM     27  N   UNL     1      32.645  21.467  -6.024  1.00  0.00    -0.198 NA
BRANCH  25  28
ATOM     28  C   UNL     1      33.527  18.142  -5.745  1.00  0.00     0.037 C
ATOM     29  G   UNL     1      34.448  18.658  -6.856  1.00  0.00     0.000 C
ENDBRANCH  25  28
ENDBRANCH  20  22
ENDBRANCH  15  20
ENDBRANCH  12  15
ENDBRANCH   1  11
BRANCH   7  30
ATOM     30  C   UNL     1      32.966   9.828  -2.529  1.00  0.00     0.014 C
ATOM     31  C   UNL     1      33.551   8.952  -1.427  1.00  0.00     0.014 C
ATOM     32  C   UNL     1      33.964   8.724  -2.846  1.00  0.00     0.014 C
BRANCH  30  33
ATOM     33  C   UNL     1      31.512   9.605  -2.926  1.00  0.00     0.014 C
BRANCH  33  34
ATOM     34  C   UNL     1      31.366   8.747  -4.193  1.00  0.00     0.012 C
BRANCH  34  35
ATOM     35  C   UNL     1      30.123   9.143  -4.982  1.00  0.00     0.069 C
BRANCH  35  36
ATOM     36  S   UNL     1      29.420   7.749  -5.926  1.00  0.00    -0.162 SA
BRANCH  36  37
ATOM     37  C   UNL     1      28.433   8.652  -7.172  1.00  0.00     0.071 C
ATOM     38  G   UNL     1      28.325   7.766  -8.418  1.00  0.00     0.000 C
ENDBRANCH  36  37
ENDBRANCH  35  36
ENDBRANCH  34  35
ENDBRANCH  33  34
ENDBRANCH  30  33
ENDBRANCH   7  30
TORSDOF 1
ENDMDL
MODEL 2
REMARK VINA RESULT:      -8.1      1.834      2.680
REMARK SMILES CC(C)(C)[C@H]1NC(=O)c2c[nH]c3ncc(nc23)[C@]2(CCCSCC[C@@]3(C#N)CN(C3)C1=O)CC2
REMARK SMILES IDX 9 1 10 2 11 3 12 4 13 5 14 6 15 7 16 8 17 9 7 11 6 12 8 13
REMARK SMILES IDX 5 15 2 16 1 17 3 18 4 19 31 20 32 21 29 22 30 23 28 24 25 25
REMARK SMILES IDX 26 26 27 27 24 28 18 30 34 31 33 32 19 33 20 34 21 35 22 36
REMARK SMILES IDX 23 37
REMARK H PARENT 11 10 6 14
REMARK Flexibility Score:  115.900
ROOT
ATOM      1  C   UNL     1      33.880  13.348  -2.710  1.00  0.00     0.085 A
ATOM      2  C   UNL     1      35.209  13.407  -2.299  1.00  0.00     0.100 A
ATOM      3  N   UNL     1      35.688  12.123  -2.191  1.00  0.00    -0.344 N
ATOM      4  C   UNL     1      34.700  11.237  -2.506  1.00  0.00     0.156 A
ATOM      5  N   UNL     1      34.803   9.896  -2.462  1.00  0.00    -0.235 NA
ATOM      6  C   UNL     1      33.620   9.318  -2.814  1.00  0.00     0.138 A
ATOM      7  C   UNL     1      32.454   9.996  -3.198  1.00  0.00     0.066 A
ATOM      8  N   UNL     1      32.424  11.350  -3.233  1.00  0.00    -0.246 NA
ATOM      9  C   UNL     1      33.574  11.967  -2.864  1.00  0.00     0.120 A
ATOM     10  H   UNL     1      36.617  11.848  -1.903  1.00  0.00     0.168 HD
ENDROOT
BRANCH   1  11
ATOM     11  C   UNL     1      32.964  14.459  -2.925  1.00  0.00     0.255 C
ATOM     12  N   UNL     1      31.932  14.199  -3.804  1.00  0.00    -0.340 N
ATOM     13  O   UNL     1      33.109  15.565  -2.413  1.00  0.00    -0.269 OA
ATOM     14  H   UNL     1      31.968  13.349  -4.349  1.00  0.00     0.164 HD
BRANCH  12  15
ATOM     15  C   UNL     1      31.070  15.278  -4.276  1.00  0.00     0.177 C
BRANCH  15  16
ATOM     16  C   UNL     1      29.644  14.793  -4.678  1.00  0.00    -0.009 C
ATOM     17  C   UNL     1      29.077  13.706  -3.746  1.00  0.00     0.013 C
ATOM     18  C   UNL     1      29.672  14.238  -6.116  1.00  0.00     0.013 C
ATOM     19  C   UNL     1      28.677  15.998  -4.653  1.00  0.00     0.013 C
ENDBRANCH  15  16
BRANCH  15  20
ATOM     20  C   UNL     1      31.852  15.943  -5.432  1.00  0.00     0.245 C
ATOM     21  O   UNL     1      32.471  15.280  -6.268  1.00  0.00    -0.272 OA
BRANCH  20  22
ATOM     22  N   UNL     1      31.868  17.308  -5.458  1.00  0.00    -0.338 N
ATOM     23  C   UNL     1      31.757  18.245  -4.360  1.00  0.00     0.143 C
ATOM     24  C   UNL     1      31.992  18.298  -6.504  1.00  0.00     0.143 C
ATOM     25  C   UNL     1      31.791  19.384  -5.413  1.00  0.00     0.093 C
ATOM     26  C   UNL     1      32.972  20.229  -5.265  1.00  0.00     0.073 C
ATOM     27  N   UNL     1      33.916  20.894  -5.152  1.00  0.00    -0.198 NA
BRANCH  25  28
ATOM     28  C   UNL     1      30.540  20.278  -5.511  1.00  0.00     0.037 C
ATOM     29  G   UNL     1      30.772  21.656  -6.140  1.00  0.00     0.000 C
ENDBRANCH  25  28
ENDBRANCH  20  22
ENDBRANCH  15  20
ENDBRANCH  12  15
ENDBRANCH   1  11
BRANCH   7  30
ATOM     30  C   UNL     1      31.162   9.258  -3.541  1.00  0.00     0.014 C
ATOM     31  C   UNL     1      30.873   7.913  -2.884  1.00  0.00     0.014 C
ATOM     32  C   UNL     1      31.280   7.956  -4.322  1.00  0.00     0.014 C
BRANCH  30  33
ATOM     33  C   UNL     1      29.984  10.170  -3.858  1.00  0.00     0.014 C
BRANCH  33  34
ATOM     34  C   UNL     1      29.598  10.150  -5.346  1.00  0.00     0.012 C
BRANCH  34  35
ATOM     35  C   UNL     1      28.091  10.297  -5.522  1.00  0.00     0.069 C
BRANCH  35  36
ATOM     36  S   UNL     1      27.446   9.295  -6.903  1.00  0.00    -0.162 SA
BRANCH  36  37
ATOM     37  C   UNL     1      26.835   7.829  -5.996  1.00  0.00     0.071 C
ATOM     38  G   UNL     1      28.023   6.889  -5.766  1.00  0.00     0.000 C
ENDBRANCH  36  37
ENDBRANCH  35  36
ENDBRANCH  34  35
ENDBRANCH  33  34
ENDBRANCH  30  33
ENDBRANCH   7  30
TORSDOF 1
ENDMDL
MODEL 3
REMARK VINA RESULT:      -8.0      0.810      1.396
REMARK SMILES CC(C)(C)[C@H]1NC(=O)c2c[nH]c3ncc(nc23)[C@]2(CCCSCC[C@@]3(C#N)CN(C3)C1=O)CC2
REMARK SMILES IDX 9 1 10 2 11 3 12 4 13 5 14 6 15 7 16 8 17 9 7 11 6 12 8 13
REMARK SMILES IDX 5 15 2 16 1 17 3 18 4 19 31 20 32 21 29 22 30 23 28 24 25 25
REMARK SMILES IDX 26 26 27 27 24 28 18 30 34 31 33 32 19 33 20 34 21 35 22 36
REMARK SMILES IDX 23 37
REMARK H PARENT 11 10 6 14
REMARK Flexibility Score:  115.900
ROOT
ATOM      1  C   UNL     1      32.218  14.741  -3.279  1.00  0.00     0.085 A
ATOM      2  C   UNL     1      33.195  15.732  -3.237  1.00  0.00     0.100 A
ATOM      3  N   UNL     1      34.410  15.135  -2.996  1.00  0.00    -0.344 N
ATOM      4  C   UNL     1      34.241  13.787  -2.866  1.00  0.00     0.156 A
ATOM      5  N   UNL     1      35.209  12.897  -2.580  1.00  0.00    -0.235 NA
ATOM      6  C   UNL     1      34.688  11.641  -2.497  1.00  0.00     0.138 A
ATOM      7  C   UNL     1      33.346  11.291  -2.704  1.00  0.00     0.066 A
ATOM      8  N   UNL     1      32.424  12.237  -3.002  1.00  0.00    -0.246 NA
ATOM      9  C   UNL     1      32.895  13.507  -3.068  1.00  0.00     0.120 A
ATOM     10  H   UNL     1      35.302  15.599  -2.903  1.00  0.00     0.168 HD
ENDROOT
BRANCH   1  11
ATOM     11  C   UNL     1      30.785  14.910  -3.475  1.00  0.00     0.255 C
ATOM     12  N   UNL     1      30.436  15.673  -4.570  1.00  0.00    -0.340 N
ATOM     13  O   UNL     1      29.939  14.459  -2.709  1.00  0.00    -0.269 OA
ATOM     14  H   UNL     1      31.162  16.186  -5.052  1.00  0.00     0.164 HD
BRANCH  12  15
ATOM     15  C   UNL     1      29.054  16.102  -4.765  1.00  0.00     0.177 C
BRANCH  15  16
ATOM     16  C   UNL     1      28.391  15.481  -6.032  1.00  0.00    -0.009 C
ATOM     17  C   UNL     1      28.620  16.303  -7.314  1.00  0.00     0.013 C
ATOM     18  C   UNL     1      26.873  15.341  -5.806  1.00  0.00     0.013 C
ATOM     19  C   UNL     1      28.970  14.066  -6.260  1.00  0.00     0.013 C
ENDBRANCH  15  16
BRANCH  15  20
ATOM     20  C   UNL     1      29.109  17.647  -4.783  1.00  0.00     0.245 C
ATOM     21  O   UNL     1      28.126  18.338  -4.507  1.00  0.00    -0.272 OA
BRANCH  20  22
ATOM     22  N   UNL     1      30.289  18.215  -5.171  1.00  0.00    -0.338 N
ATOM     23  C   UNL     1      31.351  18.766  -4.356  1.00  0.00     0.143 C
ATOM     24  C   UNL     1      30.912  18.480  -6.449  1.00  0.00     0.143 C
ATOM     25  C   UNL     1      32.063  19.174  -5.672  1.00  0.00     0.093 C
ATOM     26  C   UNL     1      33.333  18.476  -5.846  1.00  0.00     0.073 C
ATOM     27  N   UNL     1      34.337  17.913  -5.988  1.00  0.00    -0.198 NA
BRANCH  25  28
ATOM     28  C   UNL     1      32.280  20.682  -5.907  1.00  0.00     0.037 C
ATOM     29  G   UNL     1      33.543  21.266  -5.265  1.00  0.00     0.000 C
ENDBRANCH  25  28
ENDBRANCH  20  22
ENDBRANCH  15  20
ENDBRANCH  12  15
ENDBRANCH   1  11
BRANCH   7  30
ATOM     30  C   UNL     1      32.850   9.854  -2.553  1.00  0.00     0.014 C
ATOM     31  C   UNL     1      33.408   8.985  -1.431  1.00  0.00     0.014 C
ATOM     32  C   UNL     1      33.839   8.733  -2.841  1.00  0.00     0.014 C
BRANCH  30  33
ATOM     33  C   UNL     1      31.399   9.644  -2.969  1.00  0.00     0.014 C
BRANCH  33  34
ATOM     34  C   UNL     1      31.239   9.438  -4.484  1.00  0.00     0.012 C
BRANCH  34  35
ATOM     35  C   UNL     1      30.388   8.208  -4.781  1.00  0.00     0.069 C
BRANCH  35  36
ATOM     36  S   UNL     1      28.771   8.635  -5.508  1.00  0.00    -0.162 SA
BRANCH  36  37
ATOM     37  C   UNL     1      29.091   8.277  -7.272  1.00  0.00     0.071 C
ATOM     38  G   UNL     1      27.943   8.877  -8.090  1.00  0.00     0.000 C
ENDBRANCH  36  37
ENDBRANCH  35  36
ENDBRANCH  34  35
ENDBRANCH  33  34
ENDBRANCH  30  33
ENDBRANCH   7  30
TORSDOF 1
ENDMDL
MODEL 4
REMARK VINA RESULT:      -7.9      1.466      2.036
REMARK SMILES CC(C)(C)[C@H]1NC(=O)c2c[nH]c3ncc(nc23)[C@]2(CCCSCC[C@@]3(C#N)CN(C3)C1=O)CC2
REMARK SMILES IDX 9 1 10 2 11 3 12 4 13 5 14 6 15 7 16 8 17 9 7 11 6 12 8 13
REMARK SMILES IDX 5 15 2 16 1 17 3 18 4 19 31 20 32 21 29 22 30 23 28 24 25 25
REMARK SMILES IDX 26 26 27 27 24 28 18 30 34 31 33 32 19 33 20 34 21 35 22 36
REMARK SMILES IDX 23 37
REMARK H PARENT 11 10 6 14
REMARK Flexibility Score:  115.900
ROOT
ATOM      1  C   UNL     1      32.833  14.608  -3.002  1.00  0.00     0.085 A
ATOM      2  C   UNL     1      34.083  15.141  -2.697  1.00  0.00     0.100 A
ATOM      3  N   UNL     1      34.980  14.107  -2.574  1.00  0.00    -0.344 N
ATOM      4  C   UNL     1      34.340  12.919  -2.777  1.00  0.00     0.156 A
ATOM      5  N   UNL     1      34.900  11.698  -2.686  1.00  0.00    -0.235 NA
ATOM      6  C   UNL     1      33.969  10.732  -2.922  1.00  0.00     0.138 A
ATOM      7  C   UNL     1      32.621  10.947  -3.243  1.00  0.00     0.066 A
ATOM      8  N   UNL     1      32.125  12.204  -3.329  1.00  0.00    -0.246 NA
ATOM      9  C   UNL     1      33.012  13.198  -3.076  1.00  0.00     0.120 A
ATOM     10  H   UNL     1      35.961  14.183  -2.348  1.00  0.00     0.168 HD
ENDROOT
BRANCH   1  11
ATOM     11  C   UNL     1      31.580  15.324  -3.190  1.00  0.00     0.255 C
ATOM     12  N   UNL     1      31.013  15.183  -4.440  1.00  0.00    -0.340 N
ATOM     13  O   UNL     1      31.077  16.044  -2.333  1.00  0.00    -0.269 OA
ATOM     14  H   UNL     1      31.559  14.748  -5.170  1.00  0.00     0.164 HD
BRANCH  12  15
ATOM     15  C   UNL     1      29.878  16.010  -4.837  1.00  0.00     0.177 C
BRANCH  15  16
ATOM     16  C   UNL     1      28.602  15.181  -5.179  1.00  0.00    -0.009 C
ATOM     17  C   UNL     1      28.574  14.662  -6.629  1.00  0.00     0.013 C
ATOM     18  C   UNL     1      27.346  16.042  -4.942  1.00  0.00     0.013 C
ATOM     19  C   UNL     1      28.527  13.962  -4.232  1.00  0.00     0.013 C
ENDBRANCH  15  16
BRANCH  15  20
ATOM     20  C   UNL     1      30.397  16.869  -6.013  1.00  0.00     0.245 C
ATOM     21  O   UNL     1      30.308  16.494  -7.185  1.00  0.00    -0.272 OA
BRANCH  20  22
ATOM     22  N   UNL     1      31.007  18.048  -5.691  1.00  0.00    -0.338 N
ATOM     23  C   UNL     1      31.890  18.348  -4.583  1.00  0.00     0.143 C
ATOM     24  C   UNL     1      31.021  19.371  -6.273  1.00  0.00     0.143 C
ATOM     25  C   UNL     1      31.901  19.819  -5.075  1.00  0.00     0.093 C
ATOM     26  C   UNL     1      33.230  20.241  -5.507  1.00  0.00     0.073 C
ATOM     27  N   UNL     1      34.285  20.572  -5.858  1.00  0.00    -0.198 NA
BRANCH  25  28
ATOM     28  C   UNL     1      31.322  20.878  -4.116  1.00  0.00     0.037 C
ATOM     29  G   UNL     1      31.951  22.271  -4.227  1.00  0.00     0.000 C
ENDBRANCH  25  28
ENDBRANCH  20  22
ENDBRANCH  15  20
ENDBRANCH  12  15
ENDBRANCH   1  11
BRANCH   7  30
ATOM     30  C   UNL     1      31.644   9.792  -3.455  1.00  0.00     0.014 C
ATOM     31  C   UNL     1      31.314   8.868  -2.288  1.00  0.00     0.014 C
ATOM     32  C   UNL     1      32.199   8.376  -3.388  1.00  0.00     0.014 C
BRANCH  30  33
ATOM     33  C   UNL     1      30.549  10.077  -4.476  1.00  0.00     0.014 C
BRANCH  33  34
ATOM     34  C   UNL     1      30.127   8.824  -5.261  1.00  0.00     0.012 C
BRANCH  34  35
ATOM     35  C   UNL     1      28.781   9.037  -5.946  1.00  0.00     0.069 C
BRANCH  35  36
ATOM     36  S   UNL     1      27.984   7.466  -6.422  1.00  0.00    -0.162 SA
BRANCH  36  37
ATOM     37  C   UNL     1      26.262   8.028  -6.674  1.00  0.00     0.071 C
ATOM     38  G   UNL     1      26.140   8.542  -8.112  1.00  0.00     0.000 C
ENDBRANCH  36  37
ENDBRANCH  35  36
ENDBRANCH  34  35
ENDBRANCH  33  34
ENDBRANCH  30  33
ENDBRANCH   7  30
TORSDOF 1
ENDMDL
MODEL 5
REMARK VINA RESULT:      -7.9      1.851      2.640
REMARK SMILES CC(C)(C)[C@H]1NC(=O)c2c[nH]c3ncc(nc23)[C@]2(CCCSCC[C@@]3(C#N)CN(C3)C1=O)CC2
REMARK SMILES IDX 9 1 10 2 11 3 12 4 13 5 14 6 15 7 16 8 17 9 7 11 6 12 8 13
REMARK SMILES IDX 5 15 2 16 1 17 3 18 4 19 31 20 32 21 29 22 30 23 28 24 25 25
REMARK SMILES IDX 26 26 27 27 24 28 18 30 34 31 33 32 19 33 20 34 21 35 22 36
REMARK SMILES IDX 23 37
REMARK H PARENT 11 10 6 14
REMARK Flexibility Score:  115.900
ROOT
ATOM      1  C   UNL     1      33.917  13.163  -2.745  1.00  0.00     0.085 A
ATOM      2  C   UNL     1      35.224  13.140  -2.265  1.00  0.00     0.100 A
ATOM      3  N   UNL     1      35.618  11.829  -2.138  1.00  0.00    -0.344 N
ATOM      4  C   UNL     1      34.595  11.005  -2.509  1.00  0.00     0.156 A
ATOM      5  N   UNL     1      34.614   9.660  -2.466  1.00  0.00    -0.235 NA
ATOM      6  C   UNL     1      33.418   9.156  -2.881  1.00  0.00     0.138 A
ATOM      7  C   UNL     1      32.317   9.905  -3.323  1.00  0.00     0.066 A
ATOM      8  N   UNL     1      32.371  11.258  -3.352  1.00  0.00    -0.246 NA
ATOM      9  C   UNL     1      33.535  11.803  -2.921  1.00  0.00     0.120 A
ATOM     10  H   UNL     1      36.511  11.497  -1.804  1.00  0.00     0.168 HD
ENDROOT
BRANCH   1  11
ATOM     11  C   UNL     1      33.082  14.328  -3.002  1.00  0.00     0.255 C
ATOM     12  N   UNL     1      31.945  14.075  -3.741  1.00  0.00    -0.340 N
ATOM     13  O   UNL     1      33.376  15.463  -2.641  1.00  0.00    -0.269 OA
ATOM     14  H   UNL     1      31.848  13.171  -4.182  1.00  0.00     0.164 HD
BRANCH  12  15
ATOM     15  C   UNL     1      31.134  15.175  -4.253  1.00  0.00     0.177 C
BRANCH  15  16
ATOM     16  C   UNL     1      29.679  14.748  -4.618  1.00  0.00    -0.009 C
ATOM     17  C   UNL     1      29.064  13.744  -3.625  1.00  0.00     0.013 C
ATOM     18  C   UNL     1      29.663  14.117  -6.024  1.00  0.00     0.013 C
ATOM     19  C   UNL     1      28.779  16.003  -4.650  1.00  0.00     0.013 C
ENDBRANCH  15  16
BRANCH  15  20
ATOM     20  C   UNL     1      31.935  15.745  -5.446  1.00  0.00     0.245 C
ATOM     21  O   UNL     1      32.518  15.014  -6.249  1.00  0.00    -0.272 OA
BRANCH  20  22
ATOM     22  N   UNL     1      32.008  17.106  -5.543  1.00  0.00    -0.338 N
ATOM     23  C   UNL     1      32.186  17.932  -6.718  1.00  0.00     0.143 C
ATOM     24  C   UNL     1      31.945  18.191  -4.590  1.00  0.00     0.143 C
ATOM     25  C   UNL     1      32.222  19.160  -5.771  1.00  0.00     0.093 C
ATOM     26  C   UNL     1      31.100  20.063  -6.005  1.00  0.00     0.073 C
ATOM     27  N   UNL     1      30.202  20.775  -6.186  1.00  0.00    -0.198 NA
BRANCH  25  28
ATOM     28  C   UNL     1      33.529  19.976  -5.739  1.00  0.00     0.037 C
ATOM     29  G   UNL     1      33.405  21.381  -5.139  1.00  0.00     0.000 C
ENDBRANCH  25  28
ENDBRANCH  20  22
ENDBRANCH  15  20
ENDBRANCH  12  15
ENDBRANCH   1  11
BRANCH   7  30
ATOM     30  C   UNL     1      31.002   9.247  -3.736  1.00  0.00     0.014 C
ATOM     31  C   UNL     1      30.728   7.803  -3.330  1.00  0.00     0.014 C
ATOM     32  C   UNL     1      31.068   8.115  -4.752  1.00  0.00     0.014 C
BRANCH  30  33
ATOM     33  C   UNL     1      29.820  10.206  -3.819  1.00  0.00     0.014 C
BRANCH  33  34
ATOM     34  C   UNL     1      29.283  10.365  -5.250  1.00  0.00     0.012 C
BRANCH  34  35
ATOM     35  C   UNL     1      27.852   9.847  -5.357  1.00  0.00     0.069 C
BRANCH  35  36
ATOM     36  S   UNL     1      27.303   9.662  -7.087  1.00  0.00    -0.162 SA
BRANCH  36  37
ATOM     37  C   UNL     1      27.775   7.925  -7.405  1.00  0.00     0.071 C
ATOM     38  G   UNL     1      29.162   7.925  -8.056  1.00  0.00     0.000 C
ENDBRANCH  36  37
ENDBRANCH  35  36
ENDBRANCH  34  35
ENDBRANCH  33  34
ENDBRANCH  30  33
ENDBRANCH   7  30
TORSDOF 1
ENDMDL
MODEL 6
REMARK VINA RESULT:      -7.8      0.957      1.487
REMARK SMILES CC(C)(C)[C@H]1NC(=O)c2c[nH]c3ncc(nc23)[C@]2(CCCSCC[C@@]3(C#N)CN(C3)C1=O)CC2
REMARK SMILES IDX 9 1 10 2 11 3 12 4 13 5 14 6 15 7 16 8 17 9 7 11 6 12 8 13
REMARK SMILES IDX 5 15 2 16 1 17 3 18 4 19 31 20 32 21 29 22 30 23 28 24 25 25
REMARK SMILES IDX 26 26 27 27 24 28 18 30 34 31 33 32 19 33 20 34 21 35 22 36
REMARK SMILES IDX 23 37
REMARK H PARENT 11 10 6 14
REMARK Flexibility Score:  115.900
ROOT
ATOM      1  C   UNL     1      32.289  14.719  -3.216  1.00  0.00     0.085 A
ATOM      2  C   UNL     1      33.234  15.731  -3.072  1.00  0.00     0.100 A
ATOM      3  N   UNL     1      34.455  15.154  -2.817  1.00  0.00    -0.344 N
ATOM      4  C   UNL     1      34.321  13.797  -2.777  1.00  0.00     0.156 A
ATOM      5  N   UNL     1      35.302  12.917  -2.504  1.00  0.00    -0.235 NA
ATOM      6  C   UNL     1      34.816  11.645  -2.521  1.00  0.00     0.138 A
ATOM      7  C   UNL     1      33.494  11.271  -2.806  1.00  0.00     0.066 A
ATOM      8  N   UNL     1      32.558  12.209  -3.085  1.00  0.00    -0.246 NA
ATOM      9  C   UNL     1      32.993  13.493  -3.053  1.00  0.00     0.120 A
ATOM     10  H   UNL     1      35.329  15.636  -2.657  1.00  0.00     0.168 HD
ENDROOT
BRANCH   1  11
ATOM     11  C   UNL     1      30.861  14.861  -3.463  1.00  0.00     0.255 C
ATOM     12  N   UNL     1      30.532  15.731  -4.482  1.00  0.00    -0.340 N
ATOM     13  O   UNL     1      30.000  14.299  -2.794  1.00  0.00    -0.269 OA
ATOM     14  H   UNL     1      31.259  16.318  -4.867  1.00  0.00     0.164 HD
BRANCH  12  15
ATOM     15  C   UNL     1      29.145  16.132  -4.696  1.00  0.00     0.177 C
BRANCH  15  16
ATOM     16  C   UNL     1      28.479  15.418  -5.912  1.00  0.00    -0.009 C
ATOM     17  C   UNL     1      26.952  15.272  -5.781  1.00  0.00     0.013 C
ATOM     18  C   UNL     1      29.092  14.014  -6.086  1.00  0.00     0.013 C
ATOM     19  C   UNL     1      28.776  16.228  -7.194  1.00  0.00     0.013 C
ENDBRANCH  15  16
BRANCH  15  20
ATOM     20  C   UNL     1      29.185  17.672  -4.821  1.00  0.00     0.245 C
ATOM     21  O   UNL     1      28.172  18.363  -4.695  1.00  0.00    -0.272 OA
BRANCH  20  22
ATOM     22  N   UNL     1      30.391  18.232  -5.130  1.00  0.00    -0.338 N
ATOM     23  C   UNL     1      31.453  18.664  -4.245  1.00  0.00     0.143 C
ATOM     24  C   UNL     1      31.050  18.596  -6.364  1.00  0.00     0.143 C
ATOM     25  C   UNL     1      32.207  19.171  -5.503  1.00  0.00     0.093 C
ATOM     26  C   UNL     1      33.456  18.448  -5.720  1.00  0.00     0.073 C
ATOM     27  N   UNL     1      34.444  17.866  -5.896  1.00  0.00    -0.198 NA
BRANCH  25  28
ATOM     28  C   UNL     1      32.480  20.686  -5.586  1.00  0.00     0.037 C
ATOM     29  G   UNL     1      31.254  21.553  -5.895  1.00  0.00     0.000 C
ENDBRANCH  25  28
ENDBRANCH  20  22
ENDBRANCH  15  20
ENDBRANCH  12  15
ENDBRANCH   1  11
BRANCH   7  30
ATOM     30  C   UNL     1      33.036   9.815  -2.765  1.00  0.00     0.014 C
ATOM     31  C   UNL     1      32.918   9.106  -1.420  1.00  0.00     0.014 C
ATOM     32  C   UNL     1      34.053   8.767  -2.333  1.00  0.00     0.014 C
BRANCH  30  33
ATOM     33  C   UNL     1      32.051   9.436  -3.864  1.00  0.00     0.014 C
BRANCH  33  34
ATOM     34  C   UNL     1      30.600   9.798  -3.512  1.00  0.00     0.012 C
BRANCH  34  35
ATOM     35  C   UNL     1      29.824  10.219  -4.757  1.00  0.00     0.069 C
BRANCH  35  36
ATOM     36  S   UNL     1      29.469   8.815  -5.867  1.00  0.00    -0.162 SA
BRANCH  36  37
ATOM     37  C   UNL     1      27.721   9.152  -6.284  1.00  0.00     0.071 C
ATOM     38  G   UNL     1      27.502  10.666  -6.207  1.00  0.00     0.000 C
ENDBRANCH  36  37
ENDBRANCH  35  36
ENDBRANCH  34  35
ENDBRANCH  33  34
ENDBRANCH  30  33
ENDBRANCH   7  30
TORSDOF 1
ENDMDL
MODEL 7
REMARK VINA RESULT:      -7.7      2.649      5.385
REMARK SMILES CC(C)(C)[C@H]1NC(=O)c2c[nH]c3ncc(nc23)[C@]2(CCCSCC[C@@]3(C#N)CN(C3)C1=O)CC2
REMARK SMILES IDX 9 1 10 2 11 3 12 4 13 5 14 6 15 7 16 8 17 9 7 11 6 12 8 13
REMARK SMILES IDX 5 15 2 16 1 17 3 18 4 19 31 20 32 21 29 22 30 23 28 24 25 25
REMARK SMILES IDX 26 26 27 27 24 28 18 30 34 31 33 32 19 33 20 34 21 35 22 36
REMARK SMILES IDX 23 37
REMARK H PARENT 11 10 6 14
REMARK Flexibility Score:  115.900
ROOT
ATOM      1  C   UNL     1      32.054  10.881  -4.032  1.00  0.00     0.085 A
ATOM      2  C   UNL     1      32.833  10.376  -2.994  1.00  0.00     0.100 A
ATOM      3  N   UNL     1      32.517   9.048  -2.820  1.00  0.00    -0.344 N
ATOM      4  C   UNL     1      31.546   8.688  -3.708  1.00  0.00     0.156 A
ATOM      5  N   UNL     1      30.964   7.477  -3.789  1.00  0.00    -0.235 NA
ATOM      6  C   UNL     1      30.017   7.471  -4.767  1.00  0.00     0.138 A
ATOM      7  C   UNL     1      29.691   8.548  -5.605  1.00  0.00     0.066 A
ATOM      8  N   UNL     1      30.325   9.737  -5.478  1.00  0.00    -0.246 NA
ATOM      9  C   UNL     1      31.259   9.796  -4.496  1.00  0.00     0.120 A
ATOM     10  H   UNL     1      32.912   8.420  -2.135  1.00  0.00     0.168 HD
ENDROOT
BRANCH   1  11
ATOM     11  C   UNL     1      32.027  12.244  -4.543  1.00  0.00     0.255 C
ATOM     12  N   UNL     1      31.383  13.155  -3.731  1.00  0.00    -0.340 N
ATOM     13  O   UNL     1      32.490  12.568  -5.632  1.00  0.00    -0.269 OA
ATOM     14  H   UNL     1      30.847  12.808  -2.947  1.00  0.00     0.164 HD
BRANCH  12  15
ATOM     15  C   UNL     1      31.092  14.502  -4.212  1.00  0.00     0.177 C
BRANCH  15  16
ATOM     16  C   UNL     1      31.726  15.620  -3.328  1.00  0.00    -0.009 C
ATOM     17  C   UNL     1      31.723  17.009  -3.995  1.00  0.00     0.013 C
ATOM     18  C   UNL     1      33.182  15.246  -2.985  1.00  0.00     0.013 C
ATOM     19  C   UNL     1      30.937  15.722  -2.004  1.00  0.00     0.013 C
ENDBRANCH  15  16
BRANCH  15  20
ATOM     20  C   UNL     1      29.551  14.576  -4.301  1.00  0.00     0.245 C
ATOM     21  O   UNL     1      28.827  13.703  -3.818  1.00  0.00    -0.272 OA
BRANCH  20  22
ATOM     22  N   UNL     1      29.025  15.633  -4.988  1.00  0.00    -0.338 N
ATOM     23  C   UNL     1      29.129  15.954  -6.396  1.00  0.00     0.143 C
ATOM     24  C   UNL     1      28.217  16.775  -4.621  1.00  0.00     0.143 C
ATOM     25  C   UNL     1      28.341  17.255  -6.092  1.00  0.00     0.093 C
ATOM     26  C   UNL     1      27.047  17.280  -6.766  1.00  0.00     0.073 C
ATOM     27  N   UNL     1      26.014  17.294  -7.294  1.00  0.00    -0.198 NA
BRANCH  25  28
ATOM     28  C   UNL     1      29.072  18.587  -6.353  1.00  0.00     0.037 C
ATOM     29  G   UNL     1      28.159  19.802  -6.552  1.00  0.00     0.000 C
ENDBRANCH  25  28
ENDBRANCH  20  22
ENDBRANCH  15  20
ENDBRANCH  12  15
ENDBRANCH   1  11
BRANCH   7  30
ATOM     30  C   UNL     1      28.583   8.453  -6.653  1.00  0.00     0.014 C
ATOM     31  C   UNL     1      28.358   7.135  -7.385  1.00  0.00     0.014 C
ATOM     32  C   UNL     1      29.001   8.276  -8.106  1.00  0.00     0.014 C
BRANCH  30  33
ATOM     33  C   UNL     1      27.372   9.331  -6.366  1.00  0.00     0.014 C
BRANCH  33  34
ATOM     34  C   UNL     1      27.219  10.483  -7.372  1.00  0.00     0.012 C
BRANCH  34  35
ATOM     35  C   UNL     1      27.184  11.830  -6.660  1.00  0.00     0.069 C
BRANCH  35  36
ATOM     36  S   UNL     1      26.727  13.199  -7.775  1.00  0.00    -0.162 SA
BRANCH  36  37
ATOM     37  C   UNL     1      25.270  13.873  -6.899  1.00  0.00     0.071 C
ATOM     38  G   UNL     1      25.650  14.057  -5.426  1.00  0.00     0.000 C
ENDBRANCH  36  37
ENDBRANCH  35  36
ENDBRANCH  34  35
ENDBRANCH  33  34
ENDBRANCH  30  33
ENDBRANCH   7  30
TORSDOF 1
ENDMDL
MODEL 8
REMARK VINA RESULT:      -7.7      1.781      2.366
REMARK SMILES CC(C)(C)[C@H]1NC(=O)c2c[nH]c3ncc(nc23)[C@]2(CCCSCC[C@@]3(C#N)CN(C3)C1=O)CC2
REMARK SMILES IDX 9 1 10 2 11 3 12 4 13 5 14 6 15 7 16 8 17 9 7 11 6 12 8 13
REMARK SMILES IDX 5 15 2 16 1 17 3 18 4 19 31 20 32 21 29 22 30 23 28 24 25 25
REMARK SMILES IDX 26 26 27 27 24 28 18 30 34 31 33 32 19 33 20 34 21 35 22 36
REMARK SMILES IDX 23 37
REMARK H PARENT 11 10 6 14
REMARK Flexibility Score:  115.900
ROOT
ATOM      1  C   UNL     1      33.326  14.477  -3.020  1.00  0.00     0.085 A
ATOM      2  C   UNL     1      34.609  14.852  -2.630  1.00  0.00     0.100 A
ATOM      3  N   UNL     1      35.348  13.714  -2.411  1.00  0.00    -0.344 N
ATOM      4  C   UNL     1      34.572  12.614  -2.636  1.00  0.00     0.156 A
ATOM      5  N   UNL     1      34.956  11.334  -2.472  1.00  0.00    -0.235 NA
ATOM      6  C   UNL     1      33.925  10.491  -2.759  1.00  0.00     0.138 A
ATOM      7  C   UNL     1      32.646  10.870  -3.191  1.00  0.00     0.066 A
ATOM      8  N   UNL     1      32.330  12.177  -3.347  1.00  0.00    -0.246 NA
ATOM      9  C   UNL     1      33.320  13.054  -3.047  1.00  0.00     0.120 A
ATOM     10  H   UNL     1      36.311  13.668  -2.110  1.00  0.00     0.168 HD
ENDROOT
BRANCH   1  11
ATOM     11  C   UNL     1      32.198  15.345  -3.325  1.00  0.00     0.255 C
ATOM     12  N   UNL     1      31.754  15.283  -4.630  1.00  0.00    -0.340 N
ATOM     13  O   UNL     1      31.699  16.117  -2.512  1.00  0.00    -0.269 OA
ATOM     14  H   UNL     1      32.318  14.788  -5.307  1.00  0.00     0.164 HD
BRANCH  12  15
ATOM     15  C   UNL     1      30.779  16.248  -5.128  1.00  0.00     0.177 C
BRANCH  15  16
ATOM     16  C   UNL     1      29.502  15.579  -5.723  1.00  0.00    -0.009 C
ATOM     17  C   UNL     1      29.077  16.162  -7.084  1.00  0.00     0.013 C
ATOM     18  C   UNL     1      28.328  15.736  -4.736  1.00  0.00     0.013 C
ATOM     19  C   UNL     1      29.766  14.068  -5.910  1.00  0.00     0.013 C
ENDBRANCH  15  16
BRANCH  15  20
ATOM     20  C   UNL     1      31.555  17.121  -6.140  1.00  0.00     0.245 C
ATOM     21  O   UNL     1      32.046  16.649  -7.168  1.00  0.00    -0.272 OA
BRANCH  20  22
ATOM     22  N   UNL     1      31.715  18.439  -5.819  1.00  0.00    -0.338 N
ATOM     23  C   UNL     1      30.949  19.588  -6.255  1.00  0.00     0.143 C
ATOM     24  C   UNL     1      32.639  19.169  -4.981  1.00  0.00     0.143 C
ATOM     25  C   UNL     1      31.942  20.472  -5.456  1.00  0.00     0.093 C
ATOM     26  C   UNL     1      31.287  21.170  -4.354  1.00  0.00     0.073 C
ATOM     27  N   UNL     1      30.768  21.716  -3.472  1.00  0.00    -0.198 NA
BRANCH  25  28
ATOM     28  C   UNL     1      32.780  21.481  -6.265  1.00  0.00     0.037 C
ATOM     29  G   UNL     1      34.046  21.986  -5.565  1.00  0.00     0.000 C
ENDBRANCH  25  28
ENDBRANCH  20  22
ENDBRANCH  15  20
ENDBRANCH  12  15
ENDBRANCH   1  11
BRANCH   7  30
ATOM     30  C   UNL     1      31.542   9.847  -3.453  1.00  0.00     0.014 C
ATOM     31  C   UNL     1      31.208   8.816  -2.380  1.00  0.00     0.014 C
ATOM     32  C   UNL     1      31.953   8.389  -3.605  1.00  0.00     0.014 C
BRANCH  30  33
ATOM     33  C   UNL     1      30.409  10.359  -4.333  1.00  0.00     0.014 C
BRANCH  33  34
ATOM     34  C   UNL     1      30.075   9.403  -5.489  1.00  0.00     0.012 C
BRANCH  34  35
ATOM     35  C   UNL     1      28.568   9.316  -5.708  1.00  0.00     0.069 C
BRANCH  35  36
ATOM     36  S   UNL     1      27.742  10.934  -5.540  1.00  0.00    -0.162 SA
BRANCH  36  37
ATOM     37  C   UNL     1      27.047  11.133  -7.219  1.00  0.00     0.071 C
ATOM     38  G   UNL     1      26.735  12.619  -7.426  1.00  0.00     0.000 C
ENDBRANCH  36  37
ENDBRANCH  35  36
ENDBRANCH  34  35
ENDBRANCH  33  34
ENDBRANCH  30  33
ENDBRANCH   7  30
TORSDOF 1
ENDMDL
MODEL 9
REMARK VINA RESULT:      -7.7      1.662      3.996
REMARK SMILES CC(C)(C)[C@H]1NC(=O)c2c[nH]c3ncc(nc23)[C@]2(CCCSCC[C@@]3(C#N)CN(C3)C1=O)CC2
REMARK SMILES IDX 9 1 10 2 11 3 12 4 13 5 14 6 15 7 16 8 17 9 7 11 6 12 8 13
REMARK SMILES IDX 5 15 2 16 1 17 3 18 4 19 31 20 32 21 29 22 30 23 28 24 25 25
REMARK SMILES IDX 26 26 27 27 24 28 18 30 34 31 33 32 19 33 20 34 21 35 22 36
REMARK SMILES IDX 23 37
REMARK H PARENT 11 10 6 14
REMARK Flexibility Score:  115.900
ROOT
ATOM      1  C   UNL     1      33.610  14.604  -3.703  1.00  0.00     0.085 A
ATOM      2  C   UNL     1      34.658  15.389  -3.229  1.00  0.00     0.100 A
ATOM      3  N   UNL     1      35.476  14.600  -2.454  1.00  0.00    -0.344 N
ATOM      4  C   UNL     1      34.975  13.332  -2.404  1.00  0.00     0.156 A
ATOM      5  N   UNL     1      35.493  12.310  -1.698  1.00  0.00    -0.235 NA
ATOM      6  C   UNL     1      34.729  11.193  -1.851  1.00  0.00     0.138 A
ATOM      7  C   UNL     1      33.577  11.085  -2.645  1.00  0.00     0.066 A
ATOM      8  N   UNL     1      33.117  12.152  -3.340  1.00  0.00    -0.246 NA
ATOM      9  C   UNL     1      33.834  13.294  -3.195  1.00  0.00     0.120 A
ATOM     10  H   UNL     1      36.311  14.893  -1.968  1.00  0.00     0.168 HD
ENDROOT
BRANCH   1  11
ATOM     11  C   UNL     1      32.489  15.022  -4.534  1.00  0.00     0.255 C
ATOM     12  N   UNL     1      32.293  16.386  -4.601  1.00  0.00    -0.340 N
ATOM     13  O   UNL     1      31.736  14.235  -5.098  1.00  0.00    -0.269 OA
ATOM     14  H   UNL     1      32.810  16.978  -3.966  1.00  0.00     0.164 HD
BRANCH  12  15
ATOM     15  C   UNL     1      31.088  16.933  -5.217  1.00  0.00     0.177 C
BRANCH  15  16
ATOM     16  C   UNL     1      31.210  18.447  -5.568  1.00  0.00    -0.009 C
ATOM     17  C   UNL     1      31.288  19.362  -4.331  1.00  0.00     0.013 C
ATOM     18  C   UNL     1      30.002  18.880  -6.421  1.00  0.00     0.013 C
ATOM     19  C   UNL     1      32.488  18.667  -6.408  1.00  0.00     0.013 C
ENDBRANCH  15  16
BRANCH  15  20
ATOM     20  C   UNL     1      29.946  16.612  -4.225  1.00  0.00     0.245 C
ATOM     21  O   UNL     1      30.117  16.636  -3.004  1.00  0.00    -0.272 OA
BRANCH  20  22
ATOM     22  N   UNL     1      28.746  16.250  -4.767  1.00  0.00    -0.338 N
ATOM     23  C   UNL     1      28.358  14.995  -5.376  1.00  0.00     0.143 C
ATOM     24  C   UNL     1      27.474  16.914  -4.940  1.00  0.00     0.143 C
ATOM     25  C   UNL     1      26.986  15.646  -5.691  1.00  0.00     0.093 C
ATOM     26  C   UNL     1      25.893  14.985  -4.985  1.00  0.00     0.073 C
ATOM     27  N   UNL     1      25.026  14.465  -4.415  1.00  0.00    -0.198 NA
BRANCH  25  28
ATOM     28  C   UNL     1      26.610  15.792  -7.178  1.00  0.00     0.037 C
ATOM     29  G   UNL     1      25.781  14.641  -7.757  1.00  0.00     0.000 C
ENDBRANCH  25  28
ENDBRANCH  20  22
ENDBRANCH  15  20
ENDBRANCH  12  15
ENDBRANCH   1  11
BRANCH   7  30
ATOM     30  C   UNL     1      32.765   9.794  -2.724  1.00  0.00     0.014 C
ATOM     31  C   UNL     1      32.611   8.930  -1.478  1.00  0.00     0.014 C
ATOM     32  C   UNL     1      33.516   8.478  -2.580  1.00  0.00     0.014 C
BRANCH  30  33
ATOM     33  C   UNL     1      31.604   9.844  -3.710  1.00  0.00     0.014 C
BRANCH  33  34
ATOM     34  C   UNL     1      31.173   8.449  -4.192  1.00  0.00     0.012 C
BRANCH  34  35
ATOM     35  C   UNL     1      30.025   8.547  -5.191  1.00  0.00     0.069 C
BRANCH  35  36
ATOM     36  S   UNL     1      29.264   6.927  -5.542  1.00  0.00    -0.162 SA
BRANCH  36  37
ATOM     37  C   UNL     1      27.599   7.450  -6.088  1.00  0.00     0.071 C
ATOM     38  G   UNL     1      27.330   8.843  -5.510  1.00  0.00     0.000 C
ENDBRANCH  36  37
ENDBRANCH  35  36
ENDBRANCH  34  35
ENDBRANCH  33  34
ENDBRANCH  30  33
ENDBRANCH   7  30
TORSDOF 1
ENDMDL
