MODEL 1
REMARK VINA RESULT:      -7.7      0.000      0.000
REMARK SMILES O=C1Nc2c[nH]nc2-c2nc3ccc(cc3[nH]2)CN2CCOC[C@@H]2CCSCCC2(CC2)N1
REMARK SMILES IDX 18 1 14 2 9 3 10 4 17 5 11 6 16 7 12 8 15 9 13 10 8 12 4 13
REMARK SMILES IDX 5 14 6 15 7 16 3 18 1 19 2 20 33 21 30 24 31 25 32 26 29 27
REMARK SMILES IDX 19 29 20 30 24 31 21 32 23 33 22 34 25 35 26 36 27 37 28 38
REMARK H PARENT 17 11 6 17 3 22 33 23
REMARK Flexibility Score:  107.900
ROOT
ATOM      1  C   UNL     1      30.158   6.967  -4.586  1.00  0.00     0.120 C
ENDROOT
BRANCH   1   2
ATOM      2  C   UNL     1      30.935   8.213  -4.190  1.00  0.00    -0.032 A
ATOM      3  C   UNL     1      32.174  12.567  -3.706  1.00  0.00     0.161 A
ATOM      4  N   UNL     1      32.938  11.702  -3.052  1.00  0.00    -0.227 NA
ATOM      5  N   UNL     1      31.303  11.893  -4.516  1.00  0.00    -0.337 N
ATOM      6  C   UNL     1      32.417  10.460  -3.337  1.00  0.00     0.089 A
ATOM      7  C   UNL     1      31.402  10.554  -4.272  1.00  0.00     0.066 A
ATOM      8  C   UNL     1      32.738   9.195  -2.826  1.00  0.00     0.031 A
ATOM      9  C   UNL     1      30.672   9.468  -4.754  1.00  0.00     0.033 A
ATOM     10  C   UNL     1      31.979   8.089  -3.249  1.00  0.00     0.007 A
ATOM     11  H   UNL     1      30.563  12.324  -5.044  1.00  0.00     0.168 HD
BRANCH   3  12
ATOM     12  C   UNL     1      32.268  14.148  -3.597  1.00  0.00     0.151 A
ATOM     13  C   UNL     1      31.242  15.160  -3.613  1.00  0.00     0.092 A
ATOM     14  C   UNL     1      31.944  16.346  -3.690  1.00  0.00     0.132 A
ATOM     15  N   UNL     1      33.262  16.022  -3.608  1.00  0.00    -0.283 N
ATOM     16  N   UNL     1      33.488  14.712  -3.536  1.00  0.00    -0.170 NA
ATOM     17  H   UNL     1      34.065  16.644  -3.595  1.00  0.00     0.189 HD
BRANCH  13  18
ATOM     18  N   UNL     1      29.850  15.184  -3.565  1.00  0.00    -0.304 N
ATOM     19  O   UNL     1      29.392  14.109  -5.538  1.00  0.00    -0.248 OA
ATOM     20  C   UNL     1      29.015  14.716  -4.545  1.00  0.00     0.319 C
ATOM     21  N   UNL     1      27.693  15.050  -4.344  1.00  0.00    -0.332 N
ATOM     22  H   UNL     1      29.439  15.391  -2.667  1.00  0.00     0.172 HD
ATOM     23  H   UNL     1      27.425  15.493  -3.478  1.00  0.00     0.165 HD
BRANCH  21  24
ATOM     24  C   UNL     1      26.671  14.921  -5.380  1.00  0.00     0.043 C
ATOM     25  C   UNL     1      26.166  13.520  -5.689  1.00  0.00     0.031 C
ATOM     26  C   UNL     1      25.312  14.451  -4.886  1.00  0.00     0.031 C
BRANCH  24  27
ATOM     27  C   UNL     1      26.701  16.010  -6.467  1.00  0.00     0.039 C
ATOM     28  G   UNL     1      26.801  17.480  -6.061  1.00  0.00     0.000 C
ENDBRANCH  24  27
ENDBRANCH  21  24
ENDBRANCH  13  18
ENDBRANCH   3  12
ENDBRANCH   1   2
BRANCH   1  29
ATOM     29  N   UNL     1      29.417   7.035  -5.873  1.00  0.00    -0.292 NA
ATOM     30  C   UNL     1      29.451   5.707  -6.523  1.00  0.00     0.113 C
ATOM     31  C   UNL     1      27.988   7.441  -5.681  1.00  0.00     0.083 C
ATOM     32  C   UNL     1      28.700   4.607  -5.745  1.00  0.00     0.175 C
ATOM     33  C   UNL     1      26.998   6.242  -5.606  1.00  0.00     0.179 C
ATOM     34  O   UNL     1      27.591   5.102  -4.982  1.00  0.00    -0.378 OA
BRANCH  31  35
ATOM     35  C   UNL     1      27.596   8.387  -6.848  1.00  0.00     0.032 C
BRANCH  35  36
ATOM     36  C   UNL     1      26.617   7.762  -7.847  1.00  0.00     0.071 C
BRANCH  36  37
ATOM     37  S   UNL     1      27.336   7.815  -9.532  1.00  0.00    -0.162 SA
BRANCH  37  38
ATOM     38  C   UNL     1      27.531   9.619  -9.771  1.00  0.00     0.072 C
ATOM     39  G   UNL     1      28.276  10.053 -11.033  1.00  0.00     0.000 C
ENDBRANCH  37  38
ENDBRANCH  36  37
ENDBRANCH  35  36
ENDBRANCH  31  35
ENDBRANCH   1  29
TORSDOF 0
ENDMDL
MODEL 2
REMARK VINA RESULT:      -7.6      1.092      1.263
REMARK SMILES O=C1Nc2c[nH]nc2-c2nc3ccc(cc3[nH]2)CN2CCOC[C@@H]2CCSCCC2(CC2)N1
REMARK SMILES IDX 18 1 14 2 9 3 10 4 17 5 11 6 16 7 12 8 15 9 13 10 8 12 4 13
REMARK SMILES IDX 5 14 6 15 7 16 3 18 1 19 2 20 33 21 30 24 31 25 32 26 29 27
REMARK SMILES IDX 19 29 20 30 24 31 21 32 23 33 22 34 25 35 26 36 27 37 28 38
REMARK H PARENT 17 11 6 17 3 22 33 23
REMARK Flexibility Score:  107.900
ROOT
ATOM      1  C   UNL     1      29.826   7.020  -5.025  1.00  0.00     0.120 C
ENDROOT
BRANCH   1   2
ATOM      2  C   UNL     1      30.638   8.207  -4.528  1.00  0.00    -0.032 A
ATOM      3  C   UNL     1      32.064  12.465  -3.783  1.00  0.00     0.161 A
ATOM      4  N   UNL     1      32.736  11.537  -3.117  1.00  0.00    -0.227 NA
ATOM      5  N   UNL     1      31.217  11.871  -4.677  1.00  0.00    -0.337 N
ATOM      6  C   UNL     1      32.173  10.336  -3.487  1.00  0.00     0.089 A
ATOM      7  C   UNL     1      31.230  10.520  -4.482  1.00  0.00     0.066 A
ATOM      8  C   UNL     1      32.392   9.038  -3.008  1.00  0.00     0.031 A
ATOM      9  C   UNL     1      30.479   9.495  -5.055  1.00  0.00     0.033 A
ATOM     10  C   UNL     1      31.608   7.990  -3.526  1.00  0.00     0.007 A
ATOM     11  H   UNL     1      30.537  12.361  -5.233  1.00  0.00     0.168 HD
BRANCH   3  12
ATOM     12  C   UNL     1      32.232  14.034  -3.603  1.00  0.00     0.151 A
ATOM     13  C   UNL     1      31.255  15.092  -3.570  1.00  0.00     0.092 A
ATOM     14  C   UNL     1      32.011  16.246  -3.594  1.00  0.00     0.132 A
ATOM     15  N   UNL     1      33.313  15.859  -3.531  1.00  0.00    -0.283 N
ATOM     16  N   UNL     1      33.477  14.537  -3.520  1.00  0.00    -0.170 NA
ATOM     17  H   UNL     1      34.144  16.440  -3.493  1.00  0.00     0.189 HD
BRANCH  13  18
ATOM     18  N   UNL     1      29.866  15.179  -3.516  1.00  0.00    -0.304 N
ATOM     19  O   UNL     1      29.350  14.078  -5.461  1.00  0.00    -0.248 OA
ATOM     20  C   UNL     1      29.006  14.725  -4.482  1.00  0.00     0.319 C
ATOM     21  N   UNL     1      27.700  15.122  -4.283  1.00  0.00    -0.332 N
ATOM     22  H   UNL     1      29.469  15.425  -2.622  1.00  0.00     0.172 HD
ATOM     23  H   UNL     1      27.456  15.597  -3.427  1.00  0.00     0.165 HD
BRANCH  21  24
ATOM     24  C   UNL     1      26.669  15.013  -5.311  1.00  0.00     0.043 C
ATOM     25  C   UNL     1      26.184  13.616  -5.667  1.00  0.00     0.031 C
ATOM     26  C   UNL     1      25.324  14.501  -4.819  1.00  0.00     0.031 C
BRANCH  24  27
ATOM     27  C   UNL     1      26.666  16.142  -6.356  1.00  0.00     0.039 C
ATOM     28  G   UNL     1      27.152  17.538  -5.964  1.00  0.00     0.000 C
ENDBRANCH  24  27
ENDBRANCH  21  24
ENDBRANCH  13  18
ENDBRANCH   3  12
ENDBRANCH   1   2
BRANCH   1  29
ATOM     29  N   UNL     1      28.674   7.337  -5.909  1.00  0.00    -0.292 NA
ATOM     30  C   UNL     1      29.014   6.970  -7.301  1.00  0.00     0.113 C
ATOM     31  C   UNL     1      27.434   6.598  -5.507  1.00  0.00     0.083 C
ATOM     32  C   UNL     1      29.218   5.457  -7.520  1.00  0.00     0.175 C
ATOM     33  C   UNL     1      27.201   5.280  -6.302  1.00  0.00     0.179 C
ATOM     34  O   UNL     1      28.432   4.640  -6.642  1.00  0.00    -0.378 OA
BRANCH  31  35
ATOM     35  C   UNL     1      26.224   7.554  -5.688  1.00  0.00     0.032 C
BRANCH  35  36
ATOM     36  C   UNL     1      24.954   6.856  -6.183  1.00  0.00     0.071 C
BRANCH  36  37
ATOM     37  S   UNL     1      24.299   7.733  -7.652  1.00  0.00    -0.162 SA
BRANCH  37  38
ATOM     38  C   UNL     1      25.637   7.431  -8.864  1.00  0.00     0.072 C
ATOM     39  G   UNL     1      26.119   8.648  -9.652  1.00  0.00     0.000 C
ENDBRANCH  37  38
ENDBRANCH  36  37
ENDBRANCH  35  36
ENDBRANCH  31  35
ENDBRANCH   1  29
TORSDOF 0
ENDMDL
MODEL 3
REMARK VINA RESULT:      -7.5      2.234      7.790
REMARK SMILES O=C1Nc2c[nH]nc2-c2nc3ccc(cc3[nH]2)CN2CCOC[C@@H]2CCSCCC2(CC2)N1
REMARK SMILES IDX 18 1 14 2 9 3 10 4 17 5 11 6 16 7 12 8 15 9 13 10 8 12 4 13
REMARK SMILES IDX 5 14 6 15 7 16 3 18 1 19 2 20 33 21 30 24 31 25 32 26 29 27
REMARK SMILES IDX 19 29 20 30 24 31 21 32 23 33 22 34 25 35 26 36 27 37 28 38
REMARK H PARENT 17 11 6 17 3 22 33 23
REMARK Flexibility Score:  107.900
ROOT
ATOM      1  C   UNL     1      32.750  13.634  -4.175  1.00  0.00     0.120 C
ENDROOT
BRANCH   1   2
ATOM      2  C   UNL     1      32.424  12.163  -3.963  1.00  0.00    -0.032 A
ATOM      3  C   UNL     1      30.638   8.009  -4.487  1.00  0.00     0.161 A
ATOM      4  N   UNL     1      31.554   8.097  -3.532  1.00  0.00    -0.227 NA
ATOM      5  N   UNL     1      30.336   9.258  -4.953  1.00  0.00    -0.337 N
ATOM      6  C   UNL     1      31.951   9.415  -3.520  1.00  0.00     0.089 A
ATOM      7  C   UNL     1      31.184  10.168  -4.391  1.00  0.00     0.066 A
ATOM      8  C   UNL     1      32.976  10.055  -2.811  1.00  0.00     0.031 A
ATOM      9  C   UNL     1      31.353  11.534  -4.611  1.00  0.00     0.033 A
ATOM     10  C   UNL     1      33.209  11.421  -3.055  1.00  0.00     0.007 A
ATOM     11  H   UNL     1      29.736   9.446  -5.739  1.00  0.00     0.168 HD
BRANCH   3  12
ATOM     12  C   UNL     1      29.964   6.665  -4.998  1.00  0.00     0.151 A
ATOM     13  C   UNL     1      29.225   6.376  -6.201  1.00  0.00     0.092 A
ATOM     14  C   UNL     1      28.723   5.109  -5.989  1.00  0.00     0.132 A
ATOM     15  N   UNL     1      29.238   4.681  -4.805  1.00  0.00    -0.283 N
ATOM     16  N   UNL     1      29.999   5.588  -4.194  1.00  0.00    -0.170 NA
ATOM     17  H   UNL     1      29.114   3.782  -4.350  1.00  0.00     0.189 HD
BRANCH  13  18
ATOM     18  N   UNL     1      28.953   7.035  -7.398  1.00  0.00    -0.304 N
ATOM     19  O   UNL     1      27.181   8.322  -6.719  1.00  0.00    -0.248 OA
ATOM     20  C   UNL     1      27.922   7.914  -7.602  1.00  0.00     0.319 C
ATOM     21  N   UNL     1      27.749   8.259  -8.926  1.00  0.00    -0.332 N
ATOM     22  H   UNL     1      29.675   6.997  -8.101  1.00  0.00     0.172 HD
ATOM     23  H   UNL     1      28.426   7.948  -9.606  1.00  0.00     0.165 HD
BRANCH  21  24
ATOM     24  C   UNL     1      26.556   8.939  -9.423  1.00  0.00     0.043 C
ATOM     25  C   UNL     1      26.384  10.403  -9.052  1.00  0.00     0.031 C
ATOM     26  C   UNL     1      26.822  10.041 -10.437  1.00  0.00     0.031 C
BRANCH  24  27
ATOM     27  C   UNL     1      25.336   8.032  -9.655  1.00  0.00     0.039 C
ATOM     28  G   UNL     1      24.284   7.883  -8.556  1.00  0.00     0.000 C
ENDBRANCH  24  27
ENDBRANCH  21  24
ENDBRANCH  13  18
ENDBRANCH   3  12
ENDBRANCH   1   2
BRANCH   1  29
ATOM     29  N   UNL     1      31.601  14.576  -4.124  1.00  0.00    -0.292 NA
ATOM     30  C   UNL     1      32.057  15.869  -3.570  1.00  0.00     0.113 C
ATOM     31  C   UNL     1      31.007  14.816  -5.479  1.00  0.00     0.083 C
ATOM     32  C   UNL     1      33.078  16.609  -4.459  1.00  0.00     0.175 C
ATOM     33  C   UNL     1      31.545  16.096  -6.182  1.00  0.00     0.179 C
ATOM     34  O   UNL     1      32.913  16.347  -5.859  1.00  0.00    -0.378 OA
BRANCH  31  35
ATOM     35  C   UNL     1      29.465  14.897  -5.321  1.00  0.00     0.032 C
BRANCH  35  36
ATOM     36  C   UNL     1      28.728  15.227  -6.623  1.00  0.00     0.071 C
BRANCH  36  37
ATOM     37  S   UNL     1      27.552  13.881  -7.025  1.00  0.00    -0.162 SA
BRANCH  37  38
ATOM     38  C   UNL     1      27.527  12.957  -5.445  1.00  0.00     0.072 C
ATOM     39  G   UNL     1      27.467  11.434  -5.558  1.00  0.00     0.000 C
ENDBRANCH  37  38
ENDBRANCH  36  37
ENDBRANCH  35  36
ENDBRANCH  31  35
ENDBRANCH   1  29
TORSDOF 0
ENDMDL
MODEL 4
REMARK VINA RESULT:      -7.5      3.501      6.196
REMARK SMILES O=C1Nc2c[nH]nc2-c2nc3ccc(cc3[nH]2)CN2CCOC[C@@H]2CCSCCC2(CC2)N1
REMARK SMILES IDX 18 1 14 2 9 3 10 4 17 5 11 6 16 7 12 8 15 9 13 10 8 12 4 13
REMARK SMILES IDX 5 14 6 15 7 16 3 18 1 19 2 20 33 21 30 24 31 25 32 26 29 27
REMARK SMILES IDX 19 29 20 30 24 31 21 32 23 33 22 34 25 35 26 36 27 37 28 38
REMARK H PARENT 17 11 6 17 3 22 33 23
REMARK Flexibility Score:  107.900
ROOT
ATOM      1  C   UNL     1      31.623  11.955  -5.070  1.00  0.00     0.120 C
ENDROOT
BRANCH   1   2
ATOM      2  C   UNL     1      31.772  13.447  -4.808  1.00  0.00    -0.032 A
ATOM      3  C   UNL     1      31.175  17.955  -5.008  1.00  0.00     0.161 A
ATOM      4  N   UNL     1      32.029  17.555  -4.076  1.00  0.00    -0.227 NA
ATOM      5  N   UNL     1      30.827  16.897  -5.800  1.00  0.00    -0.337 N
ATOM      6  C   UNL     1      32.083  16.184  -4.188  1.00  0.00     0.089 A
ATOM      7  C   UNL     1      31.351  15.750  -5.279  1.00  0.00     0.066 A
ATOM      8  C   UNL     1      32.717  15.225  -3.387  1.00  0.00     0.031 A
ATOM      9  C   UNL     1      31.205  14.414  -5.648  1.00  0.00     0.033 A
ATOM     10  C   UNL     1      32.539  13.865  -3.700  1.00  0.00     0.007 A
ATOM     11  H   UNL     1      30.124  16.928  -6.520  1.00  0.00     0.168 HD
BRANCH   3  12
ATOM     12  C   UNL     1      30.653  19.442  -5.205  1.00  0.00     0.151 A
ATOM     13  C   UNL     1      29.818  20.024  -6.224  1.00  0.00     0.092 A
ATOM     14  C   UNL     1      29.883  21.380  -5.976  1.00  0.00     0.132 A
ATOM     15  N   UNL     1      30.607  21.531  -4.835  1.00  0.00    -0.283 N
ATOM     16  N   UNL     1      31.070  20.384  -4.340  1.00  0.00    -0.170 NA
ATOM     17  H   UNL     1      30.827  22.387  -4.335  1.00  0.00     0.189 HD
BRANCH  13  18
ATOM     18  N   UNL     1      29.043  19.553  -7.282  1.00  0.00    -0.304 N
ATOM     19  O   UNL     1      27.473  18.375  -6.095  1.00  0.00    -0.248 OA
ATOM     20  C   UNL     1      27.964  18.717  -7.162  1.00  0.00     0.319 C
ATOM     21  N   UNL     1      27.507  18.235  -8.371  1.00  0.00    -0.332 N
ATOM     22  H   UNL     1      29.179  20.008  -8.171  1.00  0.00     0.172 HD
ATOM     23  H   UNL     1      27.903  18.598  -9.225  1.00  0.00     0.165 HD
BRANCH  21  24
ATOM     24  C   UNL     1      26.571  17.119  -8.481  1.00  0.00     0.043 C
ATOM     25  C   UNL     1      25.088  17.454  -8.501  1.00  0.00     0.031 C
ATOM     26  C   UNL     1      25.775  17.077  -9.776  1.00  0.00     0.031 C
BRANCH  24  27
ATOM     27  C   UNL     1      27.075  15.784  -7.906  1.00  0.00     0.039 C
ATOM     28  G   UNL     1      26.371  15.168  -6.697  1.00  0.00     0.000 C
ENDBRANCH  24  27
ENDBRANCH  21  24
ENDBRANCH  13  18
ENDBRANCH   3  12
ENDBRANCH   1   2
BRANCH   1  29
ATOM     29  N   UNL     1      31.052  11.147  -3.961  1.00  0.00    -0.292 NA
ATOM     30  C   UNL     1      29.578  11.276  -3.975  1.00  0.00     0.113 C
ATOM     31  C   UNL     1      31.409   9.697  -4.077  1.00  0.00     0.083 C
ATOM     32  C   UNL     1      28.907  10.676  -5.228  1.00  0.00     0.175 C
ATOM     33  C   UNL     1      30.314   8.834  -4.770  1.00  0.00     0.179 C
ATOM     34  O   UNL     1      29.623   9.565  -5.783  1.00  0.00    -0.378 OA
BRANCH  31  35
ATOM     35  C   UNL     1      31.694   9.156  -2.650  1.00  0.00     0.032 C
BRANCH  35  36
ATOM     36  C   UNL     1      33.174   8.869  -2.383  1.00  0.00     0.071 C
BRANCH  36  37
ATOM     37  S   UNL     1      34.148  10.408  -2.585  1.00  0.00    -0.162 SA
BRANCH  37  38
ATOM     38  C   UNL     1      35.339  10.251  -1.204  1.00  0.00     0.072 C
ATOM     39  G   UNL     1      36.124  11.512  -0.846  1.00  0.00     0.000 C
ENDBRANCH  37  38
ENDBRANCH  36  37
ENDBRANCH  35  36
ENDBRANCH  31  35
ENDBRANCH   1  29
TORSDOF 0
ENDMDL
MODEL 5
REMARK VINA RESULT:      -7.5      2.276      7.735
REMARK SMILES O=C1Nc2c[nH]nc2-c2nc3ccc(cc3[nH]2)CN2CCOC[C@@H]2CCSCCC2(CC2)N1
REMARK SMILES IDX 18 1 14 2 9 3 10 4 17 5 11 6 16 7 12 8 15 9 13 10 8 12 4 13
REMARK SMILES IDX 5 14 6 15 7 16 3 18 1 19 2 20 33 21 30 24 31 25 32 26 29 27
REMARK SMILES IDX 19 29 20 30 24 31 21 32 23 33 22 34 25 35 26 36 27 37 28 38
REMARK H PARENT 17 11 6 17 3 22 33 23
REMARK Flexibility Score:  107.900
ROOT
ATOM      1  C   UNL     1      32.453  14.176  -4.624  1.00  0.00     0.120 C
ENDROOT
BRANCH   1   2
ATOM      2  C   UNL     1      32.230  12.705  -4.304  1.00  0.00    -0.032 A
ATOM      3  C   UNL     1      30.678   8.429  -4.473  1.00  0.00     0.161 A
ATOM      4  N   UNL     1      31.634   8.632  -3.576  1.00  0.00    -0.227 NA
ATOM      5  N   UNL     1      30.276   9.626  -4.998  1.00  0.00    -0.337 N
ATOM      6  C   UNL     1      31.949   9.969  -3.667  1.00  0.00     0.089 A
ATOM      7  C   UNL     1      31.094  10.618  -4.541  1.00  0.00     0.066 A
ATOM      8  C   UNL     1      32.967  10.712  -3.056  1.00  0.00     0.031 A
ATOM      9  C   UNL     1      31.168  11.975  -4.853  1.00  0.00     0.033 A
ATOM     10  C   UNL     1      33.103  12.071  -3.396  1.00  0.00     0.007 A
ATOM     11  H   UNL     1      29.628   9.726  -5.760  1.00  0.00     0.168 HD
BRANCH   3  12
ATOM     12  C   UNL     1      30.063   7.018  -4.863  1.00  0.00     0.151 A
ATOM     13  C   UNL     1      29.236   6.622  -5.974  1.00  0.00     0.092 A
ATOM     14  C   UNL     1      28.856   5.332  -5.664  1.00  0.00     0.132 A
ATOM     15  N   UNL     1      29.514   4.997  -4.523  1.00  0.00    -0.283 N
ATOM     16  N   UNL     1      30.258   5.984  -4.026  1.00  0.00    -0.170 NA
ATOM     17  H   UNL     1      29.504   4.113  -4.024  1.00  0.00     0.189 HD
BRANCH  13  18
ATOM     18  N   UNL     1      28.799   7.203  -7.162  1.00  0.00    -0.304 N
ATOM     19  O   UNL     1      27.056   8.450  -6.346  1.00  0.00    -0.248 OA
ATOM     20  C   UNL     1      27.711   8.027  -7.288  1.00  0.00     0.319 C
ATOM     21  N   UNL     1      27.374   8.293  -8.598  1.00  0.00    -0.332 N
ATOM     22  H   UNL     1      29.438   7.159  -7.941  1.00  0.00     0.172 HD
ATOM     23  H   UNL     1      27.984   7.975  -9.336  1.00  0.00     0.165 HD
BRANCH  21  24
ATOM     24  C   UNL     1      26.101   8.895  -8.987  1.00  0.00     0.043 C
ATOM     25  C   UNL     1      25.933  10.387  -8.742  1.00  0.00     0.031 C
ATOM     26  C   UNL     1      26.188   9.893 -10.132  1.00  0.00     0.031 C
BRANCH  24  27
ATOM     27  C   UNL     1      24.892   7.946  -8.954  1.00  0.00     0.039 C
ATOM     28  G   UNL     1      23.861   8.071  -7.832  1.00  0.00     0.000 C
ENDBRANCH  24  27
ENDBRANCH  21  24
ENDBRANCH  13  18
ENDBRANCH   3  12
ENDBRANCH   1   2
BRANCH   1  29
ATOM     29  N   UNL     1      31.331  15.097  -4.301  1.00  0.00    -0.292 NA
ATOM     30  C   UNL     1      31.880  16.418  -3.926  1.00  0.00     0.113 C
ATOM     31  C   UNL     1      30.396  15.275  -5.459  1.00  0.00     0.083 C
ATOM     32  C   UNL     1      32.610  17.144  -5.075  1.00  0.00     0.175 C
ATOM     33  C   UNL     1      30.694  16.539  -6.318  1.00  0.00     0.179 C
ATOM     34  O   UNL     1      32.091  16.828  -6.374  1.00  0.00    -0.378 OA
BRANCH  31  35
ATOM     35  C   UNL     1      28.948  15.333  -4.903  1.00  0.00     0.032 C
BRANCH  35  36
ATOM     36  C   UNL     1      27.868  15.296  -5.989  1.00  0.00     0.071 C
BRANCH  36  37
ATOM     37  S   UNL     1      27.659  13.579  -6.593  1.00  0.00    -0.162 SA
BRANCH  37  38
ATOM     38  C   UNL     1      27.272  13.874  -8.357  1.00  0.00     0.072 C
ATOM     39  G   UNL     1      25.840  14.309  -8.669  1.00  0.00     0.000 C
ENDBRANCH  37  38
ENDBRANCH  36  37
ENDBRANCH  35  36
ENDBRANCH  31  35
ENDBRANCH   1  29
TORSDOF 0
ENDMDL
MODEL 6
REMARK VINA RESULT:      -7.5      0.811      1.105
REMARK SMILES O=C1Nc2c[nH]nc2-c2nc3ccc(cc3[nH]2)CN2CCOC[C@@H]2CCSCCC2(CC2)N1
REMARK SMILES IDX 18 1 14 2 9 3 10 4 17 5 11 6 16 7 12 8 15 9 13 10 8 12 4 13
REMARK SMILES IDX 5 14 6 15 7 16 3 18 1 19 2 20 33 21 30 24 31 25 32 26 29 27
REMARK SMILES IDX 19 29 20 30 24 31 21 32 23 33 22 34 25 35 26 36 27 37 28 38
REMARK H PARENT 17 11 6 17 3 22 33 23
REMARK Flexibility Score:  107.900
ROOT
ATOM      1  C   UNL     1      29.971   7.012  -4.699  1.00  0.00     0.120 C
ENDROOT
BRANCH   1   2
ATOM      2  C   UNL     1      30.785   8.230  -4.287  1.00  0.00    -0.032 A
ATOM      3  C   UNL     1      32.149  12.539  -3.744  1.00  0.00     0.161 A
ATOM      4  N   UNL     1      32.891  11.643  -3.106  1.00  0.00    -0.227 NA
ATOM      5  N   UNL     1      31.257  11.902  -4.561  1.00  0.00    -0.337 N
ATOM      6  C   UNL     1      32.334  10.420  -3.407  1.00  0.00     0.089 A
ATOM      7  C   UNL     1      31.318  10.557  -4.337  1.00  0.00     0.066 A
ATOM      8  C   UNL     1      32.620   9.140  -2.916  1.00  0.00     0.031 A
ATOM      9  C   UNL     1      30.556   9.500  -4.832  1.00  0.00     0.033 A
ATOM     10  C   UNL     1      31.828   8.062  -3.353  1.00  0.00     0.007 A
ATOM     11  H   UNL     1      30.527  12.362  -5.079  1.00  0.00     0.168 HD
BRANCH   3  12
ATOM     12  C   UNL     1      32.289  14.115  -3.612  1.00  0.00     0.151 A
ATOM     13  C   UNL     1      31.292  15.155  -3.604  1.00  0.00     0.092 A
ATOM     14  C   UNL     1      32.026  16.322  -3.668  1.00  0.00     0.132 A
ATOM     15  N   UNL     1      33.336  15.960  -3.601  1.00  0.00    -0.283 N
ATOM     16  N   UNL     1      33.525  14.643  -3.551  1.00  0.00    -0.170 NA
ATOM     17  H   UNL     1      34.156  16.559  -3.585  1.00  0.00     0.189 HD
BRANCH  13  18
ATOM     18  N   UNL     1      29.902  15.218  -3.544  1.00  0.00    -0.304 N
ATOM     19  O   UNL     1      29.397  14.126  -5.497  1.00  0.00    -0.248 OA
ATOM     20  C   UNL     1      29.046  14.758  -4.510  1.00  0.00     0.319 C
ATOM     21  N   UNL     1      27.735  15.130  -4.303  1.00  0.00    -0.332 N
ATOM     22  H   UNL     1      29.505  15.449  -2.647  1.00  0.00     0.172 HD
ATOM     23  H   UNL     1      27.486  15.594  -3.442  1.00  0.00     0.165 HD
BRANCH  21  24
ATOM     24  C   UNL     1      26.701  15.013  -5.329  1.00  0.00     0.043 C
ATOM     25  C   UNL     1      26.170  13.620  -5.626  1.00  0.00     0.031 C
ATOM     26  C   UNL     1      25.340  14.568  -4.818  1.00  0.00     0.031 C
BRANCH  24  27
ATOM     27  C   UNL     1      26.738  16.097  -6.420  1.00  0.00     0.039 C
ATOM     28  G   UNL     1      27.013  17.550  -6.035  1.00  0.00     0.000 C
ENDBRANCH  24  27
ENDBRANCH  21  24
ENDBRANCH  13  18
ENDBRANCH   3  12
ENDBRANCH   1   2
BRANCH   1  29
ATOM     29  N   UNL     1      29.528   6.967  -6.117  1.00  0.00    -0.292 NA
ATOM     30  C   UNL     1      29.534   5.563  -6.583  1.00  0.00     0.113 C
ATOM     31  C   UNL     1      28.150   7.527  -6.297  1.00  0.00     0.083 C
ATOM     32  C   UNL     1      28.509   4.659  -5.866  1.00  0.00     0.175 C
ATOM     33  C   UNL     1      27.028   6.448  -6.301  1.00  0.00     0.179 C
ATOM     34  O   UNL     1      27.335   5.358  -5.432  1.00  0.00    -0.378 OA
BRANCH  31  35
ATOM     35  C   UNL     1      28.127   8.331  -7.624  1.00  0.00     0.032 C
BRANCH  35  36
ATOM     36  C   UNL     1      27.539   7.553  -8.806  1.00  0.00     0.071 C
BRANCH  36  37
ATOM     37  S   UNL     1      26.438   8.649  -9.779  1.00  0.00    -0.162 SA
BRANCH  37  38
ATOM     38  C   UNL     1      25.170   9.069  -8.528  1.00  0.00     0.072 C
ATOM     39  G   UNL     1      24.133   7.986  -8.231  1.00  0.00     0.000 C
ENDBRANCH  37  38
ENDBRANCH  36  37
ENDBRANCH  35  36
ENDBRANCH  31  35
ENDBRANCH   1  29
TORSDOF 0
ENDMDL
MODEL 7
REMARK VINA RESULT:      -7.4      1.304      1.837
REMARK SMILES O=C1Nc2c[nH]nc2-c2nc3ccc(cc3[nH]2)CN2CCOC[C@@H]2CCSCCC2(CC2)N1
REMARK SMILES IDX 18 1 14 2 9 3 10 4 17 5 11 6 16 7 12 8 15 9 13 10 8 12 4 13
REMARK SMILES IDX 5 14 6 15 7 16 3 18 1 19 2 20 33 21 30 24 31 25 32 26 29 27
REMARK SMILES IDX 19 29 20 30 24 31 21 32 23 33 22 34 25 35 26 36 27 37 28 38
REMARK H PARENT 17 11 6 17 3 22 33 23
REMARK Flexibility Score:  107.900
ROOT
ATOM      1  C   UNL     1      29.209   7.267  -5.413  1.00  0.00     0.120 C
ENDROOT
BRANCH   1   2
ATOM      2  C   UNL     1      30.203   8.272  -4.850  1.00  0.00    -0.032 A
ATOM      3  C   UNL     1      32.298  12.189  -3.853  1.00  0.00     0.161 A
ATOM      4  N   UNL     1      32.814  11.123  -3.257  1.00  0.00    -0.227 NA
ATOM      5  N   UNL     1      31.364  11.798  -4.771  1.00  0.00    -0.337 N
ATOM      6  C   UNL     1      32.064  10.054  -3.695  1.00  0.00     0.089 A
ATOM      7  C   UNL     1      31.159  10.453  -4.664  1.00  0.00     0.066 A
ATOM      8  C   UNL     1      32.073   8.709  -3.304  1.00  0.00     0.031 A
ATOM      9  C   UNL     1      30.252   9.601  -5.292  1.00  0.00     0.033 A
ATOM     10  C   UNL     1      31.128   7.838  -3.878  1.00  0.00     0.007 A
ATOM     11  H   UNL     1      30.770  12.426  -5.286  1.00  0.00     0.168 HD
BRANCH   3  12
ATOM     12  C   UNL     1      32.717  13.695  -3.574  1.00  0.00     0.151 A
ATOM     13  C   UNL     1      32.190  14.934  -4.088  1.00  0.00     0.092 A
ATOM     14  C   UNL     1      33.085  15.886  -3.646  1.00  0.00     0.132 A
ATOM     15  N   UNL     1      33.979  15.240  -2.851  1.00  0.00    -0.283 N
ATOM     16  N   UNL     1      33.775  13.926  -2.777  1.00  0.00    -0.170 NA
ATOM     17  H   UNL     1      34.756  15.630  -2.327  1.00  0.00     0.189 HD
BRANCH  13  18
ATOM     18  N   UNL     1      31.087  15.322  -4.844  1.00  0.00    -0.304 N
ATOM     19  O   UNL     1      29.449  14.160  -3.736  1.00  0.00    -0.248 OA
ATOM     20  C   UNL     1      29.805  14.872  -4.665  1.00  0.00     0.319 C
ATOM     21  N   UNL     1      28.945  15.247  -5.676  1.00  0.00    -0.332 N
ATOM     22  H   UNL     1      31.215  16.125  -5.440  1.00  0.00     0.172 HD
ATOM     23  H   UNL     1      29.271  15.889  -6.383  1.00  0.00     0.165 HD
BRANCH  21  24
ATOM     24  C   UNL     1      27.622  14.656  -5.857  1.00  0.00     0.043 C
ATOM     25  C   UNL     1      26.535  15.068  -4.877  1.00  0.00     0.031 C
ATOM     26  C   UNL     1      26.532  15.637  -6.262  1.00  0.00     0.031 C
BRANCH  24  27
ATOM     27  C   UNL     1      27.612  13.264  -6.512  1.00  0.00     0.039 C
ATOM     28  G   UNL     1      27.479  12.018  -5.637  1.00  0.00     0.000 C
ENDBRANCH  24  27
ENDBRANCH  21  24
ENDBRANCH  13  18
ENDBRANCH   3  12
ENDBRANCH   1   2
BRANCH   1  29
ATOM     29  N   UNL     1      29.213   7.094  -6.889  1.00  0.00    -0.292 NA
ATOM     30  C   UNL     1      29.046   5.660  -7.211  1.00  0.00     0.113 C
ATOM     31  C   UNL     1      28.113   7.867  -7.551  1.00  0.00     0.083 C
ATOM     32  C   UNL     1      27.680   5.078  -6.793  1.00  0.00     0.175 C
ATOM     33  C   UNL     1      26.834   7.025  -7.830  1.00  0.00     0.179 C
ATOM     34  O   UNL     1      26.615   6.038  -6.821  1.00  0.00    -0.378 OA
BRANCH  31  35
ATOM     35  C   UNL     1      28.668   8.455  -8.876  1.00  0.00     0.032 C
BRANCH  35  36
ATOM     36  C   UNL     1      27.750   8.233 -10.082  1.00  0.00     0.071 C
BRANCH  36  37
ATOM     37  S   UNL     1      27.992   9.581 -11.299  1.00  0.00    -0.162 SA
BRANCH  37  38
ATOM     38  C   UNL     1      26.567  10.661 -10.912  1.00  0.00     0.072 C
ATOM     39  G   UNL     1      26.624  11.397  -9.573  1.00  0.00     0.000 C
ENDBRANCH  37  38
ENDBRANCH  36  37
ENDBRANCH  35  36
ENDBRANCH  31  35
ENDBRANCH   1  29
TORSDOF 0
ENDMDL
MODEL 8
REMARK VINA RESULT:      -7.4      3.571      8.866
REMARK SMILES O=C1Nc2c[nH]nc2-c2nc3ccc(cc3[nH]2)CN2CCOC[C@@H]2CCSCCC2(CC2)N1
REMARK SMILES IDX 18 1 14 2 9 3 10 4 17 5 11 6 16 7 12 8 15 9 13 10 8 12 4 13
REMARK SMILES IDX 5 14 6 15 7 16 3 18 1 19 2 20 33 21 30 24 31 25 32 26 29 27
REMARK SMILES IDX 19 29 20 30 24 31 21 32 23 33 22 34 25 35 26 36 27 37 28 38
REMARK H PARENT 17 11 6 17 3 22 33 23
REMARK Flexibility Score:  107.900
ROOT
ATOM      1  C   UNL     1      30.388  16.125  -4.040  1.00  0.00     0.120 C
ENDROOT
BRANCH   1   2
ATOM      2  C   UNL     1      30.864  14.680  -3.999  1.00  0.00    -0.032 A
ATOM      3  C   UNL     1      30.921  10.136  -4.252  1.00  0.00     0.161 A
ATOM      4  N   UNL     1      32.105  10.688  -4.026  1.00  0.00    -0.227 NA
ATOM      5  N   UNL     1      29.944  11.088  -4.170  1.00  0.00    -0.337 N
ATOM      6  C   UNL     1      31.875  12.044  -3.967  1.00  0.00     0.089 A
ATOM      7  C   UNL     1      30.520  12.318  -4.034  1.00  0.00     0.066 A
ATOM      8  C   UNL     1      32.768  13.120  -3.878  1.00  0.00     0.031 A
ATOM      9  C   UNL     1      29.973  13.599  -4.011  1.00  0.00     0.033 A
ATOM     10  C   UNL     1      32.249  14.428  -3.911  1.00  0.00     0.007 A
ATOM     11  H   UNL     1      28.975  10.933  -4.391  1.00  0.00     0.168 HD
BRANCH   3  12
ATOM     12  C   UNL     1      30.662   8.596  -4.544  1.00  0.00     0.151 A
ATOM     13  C   UNL     1      29.943   7.944  -5.609  1.00  0.00     0.092 A
ATOM     14  C   UNL     1      29.890   6.622  -5.216  1.00  0.00     0.132 A
ATOM     15  N   UNL     1      30.623   6.528  -4.074  1.00  0.00    -0.283 N
ATOM     16  N   UNL     1      31.111   7.694  -3.654  1.00  0.00    -0.170 NA
ATOM     17  H   UNL     1      30.833   5.700  -3.525  1.00  0.00     0.189 HD
BRANCH  13  18
ATOM     18  N   UNL     1      29.365   8.328  -6.817  1.00  0.00    -0.304 N
ATOM     19  O   UNL     1      27.765   9.766  -6.023  1.00  0.00    -0.248 OA
ATOM     20  C   UNL     1      28.285   9.160  -6.949  1.00  0.00     0.319 C
ATOM     21  N   UNL     1      27.784   9.208  -8.233  1.00  0.00    -0.332 N
ATOM     22  H   UNL     1      29.897   8.124  -7.650  1.00  0.00     0.172 HD
ATOM     23  H   UNL     1      28.288   8.743  -8.974  1.00  0.00     0.165 HD
BRANCH  21  24
ATOM     24  C   UNL     1      26.483   9.784  -8.560  1.00  0.00     0.043 C
ATOM     25  C   UNL     1      26.345  11.295  -8.462  1.00  0.00     0.031 C
ATOM     26  C   UNL     1      26.461  10.653  -9.809  1.00  0.00     0.031 C
BRANCH  24  27
ATOM     27  C   UNL     1      25.278   8.861  -8.309  1.00  0.00     0.039 C
ATOM     28  G   UNL     1      25.457   7.345  -8.387  1.00  0.00     0.000 C
ENDBRANCH  24  27
ENDBRANCH  21  24
ENDBRANCH  13  18
ENDBRANCH   3  12
ENDBRANCH   1   2
BRANCH   1  29
ATOM     29  N   UNL     1      30.526  16.826  -5.343  1.00  0.00    -0.292 NA
ATOM     30  C   UNL     1      29.261  16.697  -6.100  1.00  0.00     0.113 C
ATOM     31  C   UNL     1      30.836  18.282  -5.171  1.00  0.00     0.083 C
ATOM     32  C   UNL     1      28.061  17.409  -5.444  1.00  0.00     0.175 C
ATOM     33  C   UNL     1      29.583  19.203  -5.232  1.00  0.00     0.179 C
ATOM     34  O   UNL     1      28.428  18.568  -4.684  1.00  0.00    -0.378 OA
BRANCH  31  35
ATOM     35  C   UNL     1      31.855  18.689  -6.269  1.00  0.00     0.032 C
BRANCH  35  36
ATOM     36  C   UNL     1      33.275  18.913  -5.740  1.00  0.00     0.071 C
BRANCH  36  37
ATOM     37  S   UNL     1      33.872  20.567  -6.256  1.00  0.00    -0.162 SA
BRANCH  37  38
ATOM     38  C   UNL     1      32.381  21.584  -5.956  1.00  0.00     0.072 C
ATOM     39  G   UNL     1      32.169  22.061  -4.519  1.00  0.00     0.000 C
ENDBRANCH  37  38
ENDBRANCH  36  37
ENDBRANCH  35  36
ENDBRANCH  31  35
ENDBRANCH   1  29
TORSDOF 0
ENDMDL
MODEL 9
REMARK VINA RESULT:      -7.4      3.691      9.622
REMARK SMILES O=C1Nc2c[nH]nc2-c2nc3ccc(cc3[nH]2)CN2CCOC[C@@H]2CCSCCC2(CC2)N1
REMARK SMILES IDX 18 1 14 2 9 3 10 4 17 5 11 6 16 7 12 8 15 9 13 10 8 12 4 13
REMARK SMILES IDX 5 14 6 15 7 16 3 18 1 19 2 20 33 21 30 24 31 25 32 26 29 27
REMARK SMILES IDX 19 29 20 30 24 31 21 32 23 33 22 34 25 35 26 36 27 37 28 38
REMARK H PARENT 17 11 6 17 3 22 33 23
REMARK Flexibility Score:  107.900
ROOT
ATOM      1  C   UNL     1      29.934  16.000  -4.524  1.00  0.00     0.120 C
ENDROOT
BRANCH   1   2
ATOM      2  C   UNL     1      29.292  14.655  -4.833  1.00  0.00    -0.032 A
ATOM      3  C   UNL     1      28.694  10.182  -5.427  1.00  0.00     0.161 A
ATOM      4  N   UNL     1      27.590  10.905  -5.551  1.00  0.00    -0.227 NA
ATOM      5  N   UNL     1      29.779  11.008  -5.328  1.00  0.00    -0.337 N
ATOM      6  C   UNL     1      27.979  12.211  -5.357  1.00  0.00     0.089 A
ATOM      7  C   UNL     1      29.355  12.303  -5.236  1.00  0.00     0.066 A
ATOM      8  C   UNL     1      27.221  13.385  -5.248  1.00  0.00     0.031 A
ATOM      9  C   UNL     1      30.049  13.492  -5.019  1.00  0.00     0.033 A
ATOM     10  C   UNL     1      27.890  14.592  -4.971  1.00  0.00     0.007 A
ATOM     11  H   UNL     1      30.717  10.700  -5.137  1.00  0.00     0.168 HD
BRANCH   3  12
ATOM     12  C   UNL     1      28.764   8.595  -5.424  1.00  0.00     0.151 A
ATOM     13  C   UNL     1      29.842   7.697  -5.101  1.00  0.00     0.092 A
ATOM     14  C   UNL     1      29.369   6.457  -5.479  1.00  0.00     0.132 A
ATOM     15  N   UNL     1      28.081   6.638  -5.877  1.00  0.00    -0.283 N
ATOM     16  N   UNL     1      27.685   7.909  -5.842  1.00  0.00    -0.170 NA
ATOM     17  H   UNL     1      27.412   5.941  -6.187  1.00  0.00     0.189 HD
BRANCH  13  18
ATOM     18  N   UNL     1      31.113   7.809  -4.542  1.00  0.00    -0.304 N
ATOM     19  O   UNL     1      30.650   9.301  -2.863  1.00  0.00    -0.248 OA
ATOM     20  C   UNL     1      31.453   8.639  -3.506  1.00  0.00     0.319 C
ATOM     21  N   UNL     1      32.812   8.713  -3.286  1.00  0.00    -0.332 N
ATOM     22  H   UNL     1      31.777   7.095  -4.799  1.00  0.00     0.172 HD
ATOM     23  H   UNL     1      33.426   8.098  -3.799  1.00  0.00     0.165 HD
BRANCH  21  24
ATOM     24  C   UNL     1      33.429   9.736  -2.446  1.00  0.00     0.043 C
ATOM     25  C   UNL     1      33.701   9.374  -0.994  1.00  0.00     0.031 C
ATOM     26  C   UNL     1      34.836   9.411  -1.969  1.00  0.00     0.031 C
BRANCH  24  27
ATOM     27  C   UNL     1      33.130  11.188  -2.858  1.00  0.00     0.039 C
ATOM     28  G   UNL     1      33.189  11.584  -4.334  1.00  0.00     0.000 C
ENDBRANCH  24  27
ENDBRANCH  21  24
ENDBRANCH  13  18
ENDBRANCH   3  12
ENDBRANCH   1   2
BRANCH   1  29
ATOM     29  N   UNL     1      30.399  16.790  -5.694  1.00  0.00    -0.292 NA
ATOM     30  C   UNL     1      29.224  17.324  -6.417  1.00  0.00     0.113 C
ATOM     31  C   UNL     1      31.276  17.936  -5.289  1.00  0.00     0.083 C
ATOM     32  C   UNL     1      28.400  18.346  -5.608  1.00  0.00     0.175 C
ATOM     33  C   UNL     1      30.518  19.289  -5.149  1.00  0.00     0.179 C
ATOM     34  O   UNL     1      29.183  19.104  -4.676  1.00  0.00    -0.378 OA
BRANCH  31  35
ATOM     35  C   UNL     1      32.413  18.065  -6.337  1.00  0.00     0.032 C
BRANCH  35  36
ATOM     36  C   UNL     1      33.710  18.652  -5.771  1.00  0.00     0.071 C
BRANCH  36  37
ATOM     37  S   UNL     1      34.237  20.082  -6.790  1.00  0.00    -0.162 SA
BRANCH  37  38
ATOM     38  C   UNL     1      33.916  21.467  -5.639  1.00  0.00     0.072 C
ATOM     39  G   UNL     1      32.550  22.141  -5.761  1.00  0.00     0.000 C
ENDBRANCH  37  38
ENDBRANCH  36  37
ENDBRANCH  35  36
ENDBRANCH  31  35
ENDBRANCH   1  29
TORSDOF 0
ENDMDL
