MODEL 1
REMARK VINA RESULT:     -11.0      0.000      0.000
REMARK SMILES CN1CCN2c3ccc(cn3)-c3cnc4cccc(c4n3)-c3cc(F)c(c(F)c3)CN3CCS(=O)(=O)C[C@@H]3CSC[C@H]2C1
REMARK SMILES IDX 22 1 23 2 24 3 25 4 26 5 27 6 28 7 29 8 19 9 12 10 13 11
REMARK SMILES IDX 21 12 14 13 20 14 15 15 16 16 18 17 17 18 9 19 6 20 7 21
REMARK SMILES IDX 11 22 8 23 10 24 5 25 2 26 3 27 43 28 4 29 42 30 1 31 30 33
REMARK SMILES IDX 31 34 32 35 38 36 33 37 37 38 34 39 35 40 36 41 39 42 40 43
REMARK SMILES IDX 41 44
REMARK H PARENT
REMARK Flexibility Score:   82.900
ROOT
ATOM      1  C   UNL     1      33.210  13.427  -3.528  1.00  0.00    -0.010 A
ATOM      2  C   UNL     1      32.267  12.964  -4.455  1.00  0.00     0.048 A
ATOM      3  C   UNL     1      31.559  13.863  -5.256  1.00  0.00     0.131 A
ATOM      4  F   UNL     1      30.660  13.373  -6.122  1.00  0.00    -0.207 F
ATOM      5  C   UNL     1      31.753  15.242  -5.161  1.00  0.00     0.038 A
ATOM      6  C   UNL     1      32.682  15.698  -4.231  1.00  0.00     0.131 A
ATOM      7  F   UNL     1      32.898  17.013  -4.091  1.00  0.00    -0.207 F
ATOM      8  C   UNL     1      33.400  14.815  -3.425  1.00  0.00     0.048 A
ENDROOT
BRANCH   1   9
ATOM      9  C   UNL     1      34.017  12.490  -2.720  1.00  0.00     0.010 A
ATOM     10  C   UNL     1      32.294   9.359  -3.242  1.00  0.00     0.091 A
ATOM     11  C   UNL     1      33.076   8.496  -2.501  1.00  0.00     0.140 A
ATOM     12  N   UNL     1      32.595  10.672  -3.319  1.00  0.00    -0.244 NA
ATOM     13  N   UNL     1      34.168   8.916  -1.817  1.00  0.00    -0.252 NA
ATOM     14  C   UNL     1      33.677  11.127  -2.657  1.00  0.00     0.097 A
ATOM     15  C   UNL     1      34.465  10.232  -1.894  1.00  0.00     0.089 A
ATOM     16  C   UNL     1      35.565  10.727  -1.208  1.00  0.00     0.030 A
ATOM     17  C   UNL     1      35.135  12.957  -2.008  1.00  0.00     0.011 A
ATOM     18  C   UNL     1      35.906  12.078  -1.255  1.00  0.00     0.003 A
BRANCH  10  19
ATOM     19  C   UNL     1      31.102   8.985  -3.980  1.00  0.00     0.020 A
ATOM     20  C   UNL     1      29.042   8.447  -5.762  1.00  0.00     0.128 A
ATOM     21  C   UNL     1      29.823   7.401  -5.271  1.00  0.00     0.047 A
ATOM     22  N   UNL     1      29.214   9.711  -5.327  1.00  0.00    -0.239 NA
ATOM     23  C   UNL     1      30.859   7.671  -4.376  1.00  0.00     0.016 A
ATOM     24  C   UNL     1      30.236   9.954  -4.472  1.00  0.00     0.124 A
BRANCH  20  25
ATOM     25  N   UNL     1      28.127   8.190  -6.780  1.00  0.00    -0.350 N
ATOM     26  N   UNL     1      26.615   6.879  -8.917  1.00  0.00    -0.303 NA
ATOM     27  C   UNL     1      27.713   7.825  -9.209  1.00  0.00     0.105 C
ATOM     28  C   UNL     1      25.963   7.297  -7.653  1.00  0.00     0.110 C
ATOM     29  C   UNL     1      28.757   7.888  -8.074  1.00  0.00     0.134 C
ATOM     30  C   UNL     1      26.946   7.352  -6.441  1.00  0.00     0.107 C
ATOM     31  C   UNL     1      25.647   6.863 -10.012  1.00  0.00     0.105 C
ATOM     32  G   UNL     1      26.178   7.811  -5.168  1.00  0.00     0.000 C
ENDBRANCH  20  25
ENDBRANCH  10  19
ENDBRANCH   1   9
BRANCH   5  33
ATOM     33  C   UNL     1      30.966  16.196  -6.014  1.00  0.00     0.126 C
BRANCH  33  34
ATOM     34  N   UNL     1      29.502  16.037  -5.881  1.00  0.00    -0.293 NA
ATOM     35  C   UNL     1      28.988  16.694  -4.674  1.00  0.00     0.101 C
ATOM     36  C   UNL     1      28.759  16.374  -7.131  1.00  0.00     0.082 C
ATOM     37  C   UNL     1      29.121  18.205  -4.670  1.00  0.00     0.152 C
ATOM     38  C   UNL     1      27.734  17.507  -6.985  1.00  0.00     0.157 C
ATOM     39  S   UNL     1      28.418  18.905  -6.141  1.00  0.00     0.153 S
ATOM     40  O   UNL     1      27.311  19.753  -5.737  1.00  0.00    -0.229 OA
ATOM     41  O   UNL     1      29.499  19.439  -6.947  1.00  0.00    -0.229 OA
BRANCH  36  42
ATOM     42  C   UNL     1      28.060  15.072  -7.613  1.00  0.00     0.089 C
BRANCH  42  43
ATOM     43  S   UNL     1      26.266  15.004  -7.242  1.00  0.00    -0.158 SA
BRANCH  43  44
ATOM     44  C   UNL     1      26.355  14.152  -5.615  1.00  0.00     0.096 C
ATOM     45  G   UNL     1      27.411  13.015  -5.487  1.00  0.00     0.000 C
ENDBRANCH  43  44
ENDBRANCH  42  43
ENDBRANCH  36  42
ENDBRANCH  33  34
ENDBRANCH   5  33
TORSDOF 0
ENDMDL
MODEL 2
REMARK VINA RESULT:     -11.0      0.142      1.234
REMARK SMILES CN1CCN2c3ccc(cn3)-c3cnc4cccc(c4n3)-c3cc(F)c(c(F)c3)CN3CCS(=O)(=O)C[C@@H]3CSC[C@H]2C1
REMARK SMILES IDX 22 1 23 2 24 3 25 4 26 5 27 6 28 7 29 8 19 9 12 10 13 11
REMARK SMILES IDX 21 12 14 13 20 14 15 15 16 16 18 17 17 18 9 19 6 20 7 21
REMARK SMILES IDX 11 22 8 23 10 24 5 25 2 26 3 27 43 28 4 29 42 30 1 31 30 33
REMARK SMILES IDX 31 34 32 35 38 36 33 37 37 38 34 39 35 40 36 41 39 42 40 43
REMARK SMILES IDX 41 44
REMARK H PARENT
REMARK Flexibility Score:   82.900
ROOT
ATOM      1  C   UNL     1      33.310  13.361  -3.566  1.00  0.00    -0.010 A
ATOM      2  C   UNL     1      33.485  14.747  -3.448  1.00  0.00     0.048 A
ATOM      3  C   UNL     1      32.716  15.625  -4.215  1.00  0.00     0.131 A
ATOM      4  F   UNL     1      32.924  16.942  -4.076  1.00  0.00    -0.207 F
ATOM      5  C   UNL     1      31.761  15.165  -5.125  1.00  0.00     0.038 A
ATOM      6  C   UNL     1      31.600  13.788  -5.246  1.00  0.00     0.131 A
ATOM      7  F   UNL     1      30.706  13.294  -6.113  1.00  0.00    -0.207 F
ATOM      8  C   UNL     1      32.357  12.896  -4.487  1.00  0.00     0.048 A
ENDROOT
BRANCH   1   9
ATOM      9  C   UNL     1      34.065  12.418  -2.716  1.00  0.00     0.010 A
ATOM     10  C   UNL     1      32.260   9.330  -3.223  1.00  0.00     0.091 A
ATOM     11  C   UNL     1      32.994   8.459  -2.443  1.00  0.00     0.140 A
ATOM     12  N   UNL     1      32.604  10.632  -3.318  1.00  0.00    -0.244 NA
ATOM     13  N   UNL     1      34.080   8.860  -1.738  1.00  0.00    -0.252 NA
ATOM     14  C   UNL     1      33.681  11.067  -2.636  1.00  0.00     0.097 A
ATOM     15  C   UNL     1      34.420  10.165  -1.833  1.00  0.00     0.089 A
ATOM     16  C   UNL     1      35.516  10.639  -1.126  1.00  0.00     0.030 A
ATOM     17  C   UNL     1      35.177  12.864  -1.983  1.00  0.00     0.011 A
ATOM     18  C   UNL     1      35.899  11.979  -1.191  1.00  0.00     0.003 A
BRANCH  10  19
ATOM     19  C   UNL     1      31.077   8.978  -3.986  1.00  0.00     0.020 A
ATOM     20  C   UNL     1      29.040   8.491  -5.809  1.00  0.00     0.128 A
ATOM     21  C   UNL     1      29.816   7.432  -5.338  1.00  0.00     0.047 A
ATOM     22  N   UNL     1      29.207   9.742  -5.336  1.00  0.00    -0.239 NA
ATOM     23  C   UNL     1      30.840   7.676  -4.423  1.00  0.00     0.016 A
ATOM     24  C   UNL     1      30.218   9.961  -4.461  1.00  0.00     0.124 A
BRANCH  20  25
ATOM     25  N   UNL     1      28.138   8.264  -6.845  1.00  0.00    -0.350 N
ATOM     26  N   UNL     1      26.666   7.021  -9.050  1.00  0.00    -0.303 NA
ATOM     27  C   UNL     1      27.751   7.995  -9.291  1.00  0.00     0.105 C
ATOM     28  C   UNL     1      25.996   7.374  -7.776  1.00  0.00     0.110 C
ATOM     29  C   UNL     1      28.784   8.027  -8.145  1.00  0.00     0.134 C
ATOM     30  C   UNL     1      26.968   7.393  -6.553  1.00  0.00     0.107 C
ATOM     31  C   UNL     1      25.708   7.037 -10.154  1.00  0.00     0.105 C
ATOM     32  G   UNL     1      26.182   7.786  -5.269  1.00  0.00     0.000 C
ENDBRANCH  20  25
ENDBRANCH  10  19
ENDBRANCH   1   9
BRANCH   5  33
ATOM     33  C   UNL     1      30.958  16.124  -5.958  1.00  0.00     0.126 C
BRANCH  33  34
ATOM     34  N   UNL     1      29.497  15.935  -5.831  1.00  0.00    -0.293 NA
ATOM     35  C   UNL     1      28.965  16.577  -4.624  1.00  0.00     0.101 C
ATOM     36  C   UNL     1      28.753  16.262  -7.084  1.00  0.00     0.082 C
ATOM     37  C   UNL     1      29.069  18.091  -4.615  1.00  0.00     0.152 C
ATOM     38  C   UNL     1      27.705  17.373  -6.938  1.00  0.00     0.157 C
ATOM     39  S   UNL     1      28.357  18.781  -6.086  1.00  0.00     0.153 S
ATOM     40  O   UNL     1      27.232  19.606  -5.684  1.00  0.00    -0.229 OA
ATOM     41  O   UNL     1      29.432  19.340  -6.886  1.00  0.00    -0.229 OA
BRANCH  36  42
ATOM     42  C   UNL     1      28.082  14.948  -7.573  1.00  0.00     0.089 C
BRANCH  42  43
ATOM     43  S   UNL     1      26.262  14.912  -7.360  1.00  0.00    -0.158 SA
BRANCH  43  44
ATOM     44  C   UNL     1      26.176  13.767  -5.924  1.00  0.00     0.096 C
ATOM     45  G   UNL     1      27.454  12.930  -5.631  1.00  0.00     0.000 C
ENDBRANCH  43  44
ENDBRANCH  42  43
ENDBRANCH  36  42
ENDBRANCH  33  34
ENDBRANCH   5  33
TORSDOF 0
ENDMDL
MODEL 3
REMARK VINA RESULT:     -11.0      1.573      3.082
REMARK SMILES CN1CCN2c3ccc(cn3)-c3cnc4cccc(c4n3)-c3cc(F)c(c(F)c3)CN3CCS(=O)(=O)C[C@@H]3CSC[C@H]2C1
REMARK SMILES IDX 22 1 23 2 24 3 25 4 26 5 27 6 28 7 29 8 19 9 12 10 13 11
REMARK SMILES IDX 21 12 14 13 20 14 15 15 16 16 18 17 17 18 9 19 6 20 7 21
REMARK SMILES IDX 11 22 8 23 10 24 5 25 2 26 3 27 43 28 4 29 42 30 1 31 30 33
REMARK SMILES IDX 31 34 32 35 38 36 33 37 37 38 34 39 35 40 36 41 39 42 40 43
REMARK SMILES IDX 41 44
REMARK H PARENT
REMARK Flexibility Score:   82.900
ROOT
ATOM      1  C   UNL     1      33.000  13.383  -2.943  1.00  0.00    -0.010 A
ATOM      2  C   UNL     1      32.318  14.309  -2.143  1.00  0.00     0.048 A
ATOM      3  C   UNL     1      31.354  15.152  -2.699  1.00  0.00     0.131 A
ATOM      4  F   UNL     1      30.733  16.028  -1.896  1.00  0.00    -0.207 F
ATOM      5  C   UNL     1      31.041  15.116  -4.060  1.00  0.00     0.038 A
ATOM      6  C   UNL     1      31.730  14.203  -4.853  1.00  0.00     0.131 A
ATOM      7  F   UNL     1      31.476  14.135  -6.167  1.00  0.00    -0.207 F
ATOM      8  C   UNL     1      32.693  13.351  -4.314  1.00  0.00     0.048 A
ENDROOT
BRANCH   1   9
ATOM      9  C   UNL     1      33.974  12.436  -2.363  1.00  0.00     0.010 A
ATOM     10  C   UNL     1      32.427   9.244  -3.045  1.00  0.00     0.091 A
ATOM     11  C   UNL     1      33.362   8.375  -2.520  1.00  0.00     0.140 A
ATOM     12  N   UNL     1      32.619  10.579  -2.998  1.00  0.00    -0.244 NA
ATOM     13  N   UNL     1      34.503   8.810  -1.931  1.00  0.00    -0.252 NA
ATOM     14  C   UNL     1      33.745  11.050  -2.426  1.00  0.00     0.097 A
ATOM     15  C   UNL     1      34.691  10.148  -1.883  1.00  0.00     0.089 A
ATOM     16  C   UNL     1      35.835  10.657  -1.283  1.00  0.00     0.030 A
ATOM     17  C   UNL     1      35.140  12.916  -1.744  1.00  0.00     0.011 A
ATOM     18  C   UNL     1      36.067  12.030  -1.207  1.00  0.00     0.003 A
BRANCH  10  19
ATOM     19  C   UNL     1      31.177   8.852  -3.669  1.00  0.00     0.020 A
ATOM     20  C   UNL     1      28.947   8.327  -5.237  1.00  0.00     0.128 A
ATOM     21  C   UNL     1      29.846   7.301  -4.946  1.00  0.00     0.047 A
ATOM     22  N   UNL     1      29.095   9.557  -4.706  1.00  0.00    -0.239 NA
ATOM     23  C   UNL     1      30.967   7.564  -4.159  1.00  0.00     0.016 A
ATOM     24  C   UNL     1      30.199   9.796  -3.959  1.00  0.00     0.124 A
BRANCH  20  25
ATOM     25  N   UNL     1      27.928   8.096  -6.159  1.00  0.00    -0.350 N
ATOM     26  N   UNL     1      25.624   8.456  -7.928  1.00  0.00    -0.303 NA
ATOM     27  C   UNL     1      25.489   7.836  -6.593  1.00  0.00     0.105 C
ATOM     28  C   UNL     1      26.966   8.125  -8.464  1.00  0.00     0.110 C
ATOM     29  C   UNL     1      26.580   8.308  -5.609  1.00  0.00     0.134 C
ATOM     30  C   UNL     1      28.133   8.601  -7.543  1.00  0.00     0.107 C
ATOM     31  C   UNL     1      24.579   7.971  -8.827  1.00  0.00     0.105 C
ATOM     32  G   UNL     1      29.496   8.198  -8.177  1.00  0.00     0.000 C
ENDBRANCH  20  25
ENDBRANCH  10  19
ENDBRANCH   1   9
BRANCH   5  33
ATOM     33  C   UNL     1      30.017  16.046  -4.646  1.00  0.00     0.126 C
BRANCH  33  34
ATOM     34  N   UNL     1      30.596  17.069  -5.544  1.00  0.00    -0.293 NA
ATOM     35  C   UNL     1      30.048  16.978  -6.902  1.00  0.00     0.101 C
ATOM     36  C   UNL     1      30.573  18.443  -4.960  1.00  0.00     0.082 C
ATOM     37  C   UNL     1      28.568  17.294  -7.009  1.00  0.00     0.152 C
ATOM     38  C   UNL     1      29.789  19.478  -5.779  1.00  0.00     0.157 C
ATOM     39  S   UNL     1      28.202  18.862  -6.264  1.00  0.00     0.153 S
ATOM     40  O   UNL     1      27.697  19.736  -7.308  1.00  0.00    -0.229 OA
ATOM     41  O   UNL     1      27.421  18.619  -5.065  1.00  0.00    -0.229 OA
BRANCH  36  42
ATOM     42  C   UNL     1      32.051  18.894  -4.793  1.00  0.00     0.089 C
BRANCH  42  43
ATOM     43  S   UNL     1      32.652  19.997  -6.128  1.00  0.00    -0.158 SA
BRANCH  43  44
ATOM     44  C   UNL     1      34.064  18.974  -6.714  1.00  0.00     0.096 C
ATOM     45  G   UNL     1      33.733  17.509  -7.120  1.00  0.00     0.000 C
ENDBRANCH  43  44
ENDBRANCH  42  43
ENDBRANCH  36  42
ENDBRANCH  33  34
ENDBRANCH   5  33
TORSDOF 0
ENDMDL
MODEL 4
REMARK VINA RESULT:     -10.9      1.000      1.618
REMARK SMILES CN1CCN2c3ccc(cn3)-c3cnc4cccc(c4n3)-c3cc(F)c(c(F)c3)CN3CCS(=O)(=O)C[C@@H]3CSC[C@H]2C1
REMARK SMILES IDX 22 1 23 2 24 3 25 4 26 5 27 6 28 7 29 8 19 9 12 10 13 11
REMARK SMILES IDX 21 12 14 13 20 14 15 15 16 16 18 17 17 18 9 19 6 20 7 21
REMARK SMILES IDX 11 22 8 23 10 24 5 25 2 26 3 27 43 28 4 29 42 30 1 31 30 33
REMARK SMILES IDX 31 34 32 35 38 36 33 37 37 38 34 39 35 40 36 41 39 42 40 43
REMARK SMILES IDX 41 44
REMARK H PARENT
REMARK Flexibility Score:   82.900
ROOT
ATOM      1  C   UNL     1      33.614  13.222  -3.510  1.00  0.00    -0.010 A
ATOM      2  C   UNL     1      33.967  14.577  -3.518  1.00  0.00     0.048 A
ATOM      3  C   UNL     1      33.292  15.480  -4.342  1.00  0.00     0.131 A
ATOM      4  F   UNL     1      33.670  16.767  -4.323  1.00  0.00    -0.207 F
ATOM      5  C   UNL     1      32.258  15.074  -5.188  1.00  0.00     0.038 A
ATOM      6  C   UNL     1      31.919  13.724  -5.185  1.00  0.00     0.131 A
ATOM      7  F   UNL     1      30.942  13.278  -5.987  1.00  0.00    -0.207 F
ATOM      8  C   UNL     1      32.580  12.808  -4.367  1.00  0.00     0.048 A
ENDROOT
BRANCH   1   9
ATOM      9  C   UNL     1      34.269  12.263  -2.597  1.00  0.00     0.010 A
ATOM     10  C   UNL     1      32.315   9.269  -3.112  1.00  0.00     0.091 A
ATOM     11  C   UNL     1      32.957   8.382  -2.272  1.00  0.00     0.140 A
ATOM     12  N   UNL     1      32.738  10.545  -3.225  1.00  0.00    -0.244 NA
ATOM     13  N   UNL     1      34.027   8.741  -1.522  1.00  0.00    -0.252 NA
ATOM     14  C   UNL     1      33.804  10.939  -2.499  1.00  0.00     0.097 A
ATOM     15  C   UNL     1      34.447  10.021  -1.635  1.00  0.00     0.089 A
ATOM     16  C   UNL     1      35.532  10.454  -0.886  1.00  0.00     0.030 A
ATOM     17  C   UNL     1      35.367  12.668  -1.820  1.00  0.00     0.011 A
ATOM     18  C   UNL     1      35.996  11.767  -0.968  1.00  0.00     0.003 A
BRANCH  10  19
ATOM     19  C   UNL     1      31.153   8.961  -3.925  1.00  0.00     0.020 A
ATOM     20  C   UNL     1      29.181   8.545  -5.835  1.00  0.00     0.128 A
ATOM     21  C   UNL     1      29.887   7.458  -5.320  1.00  0.00     0.047 A
ATOM     22  N   UNL     1      29.381   9.793  -5.365  1.00  0.00    -0.239 NA
ATOM     23  C   UNL     1      30.879   7.666  -4.361  1.00  0.00     0.016 A
ATOM     24  C   UNL     1      30.361   9.976  -4.447  1.00  0.00     0.124 A
BRANCH  20  25
ATOM     25  N   UNL     1      28.317   8.348  -6.909  1.00  0.00    -0.350 N
ATOM     26  N   UNL     1      26.913   7.159  -9.186  1.00  0.00    -0.303 NA
ATOM     27  C   UNL     1      28.025   8.115  -9.372  1.00  0.00     0.105 C
ATOM     28  C   UNL     1      26.199   7.511  -7.936  1.00  0.00     0.110 C
ATOM     29  C   UNL     1      29.011   8.113  -8.185  1.00  0.00     0.134 C
ATOM     30  C   UNL     1      27.120   7.497  -6.675  1.00  0.00     0.107 C
ATOM     31  C   UNL     1      26.000   7.205 -10.327  1.00  0.00     0.105 C
ATOM     32  G   UNL     1      26.290   7.890  -5.418  1.00  0.00     0.000 C
ENDBRANCH  20  25
ENDBRANCH  10  19
ENDBRANCH   1   9
BRANCH   5  33
ATOM     33  C   UNL     1      31.558  16.055  -6.085  1.00  0.00     0.126 C
BRANCH  33  34
ATOM     34  N   UNL     1      30.249  16.503  -5.562  1.00  0.00    -0.293 NA
ATOM     35  C   UNL     1      30.381  17.179  -4.267  1.00  0.00     0.101 C
ATOM     36  C   UNL     1      29.439  17.250  -6.569  1.00  0.00     0.082 C
ATOM     37  C   UNL     1      31.145  18.489  -4.312  1.00  0.00     0.152 C
ATOM     38  C   UNL     1      29.068  18.682  -6.163  1.00  0.00     0.157 C
ATOM     39  S   UNL     1      30.470  19.571  -5.545  1.00  0.00     0.153 S
ATOM     40  O   UNL     1      29.970  20.753  -4.866  1.00  0.00    -0.229 OA
ATOM     41  O   UNL     1      31.440  19.693  -6.617  1.00  0.00    -0.229 OA
BRANCH  36  42
ATOM     42  C   UNL     1      28.155  16.414  -6.834  1.00  0.00     0.089 C
BRANCH  42  43
ATOM     43  S   UNL     1      28.043  14.879  -5.839  1.00  0.00    -0.158 SA
BRANCH  43  44
ATOM     44  C   UNL     1      26.443  15.214  -4.998  1.00  0.00     0.096 C
ATOM     45  G   UNL     1      25.363  14.097  -5.096  1.00  0.00     0.000 C
ENDBRANCH  43  44
ENDBRANCH  42  43
ENDBRANCH  36  42
ENDBRANCH  33  34
ENDBRANCH   5  33
TORSDOF 0
ENDMDL
MODEL 5
REMARK VINA RESULT:     -10.8      1.831      3.145
REMARK SMILES CN1CCN2c3ccc(cn3)-c3cnc4cccc(c4n3)-c3cc(F)c(c(F)c3)CN3CCS(=O)(=O)C[C@@H]3CSC[C@H]2C1
REMARK SMILES IDX 22 1 23 2 24 3 25 4 26 5 27 6 28 7 29 8 19 9 12 10 13 11
REMARK SMILES IDX 21 12 14 13 20 14 15 15 16 16 18 17 17 18 9 19 6 20 7 21
REMARK SMILES IDX 11 22 8 23 10 24 5 25 2 26 3 27 43 28 4 29 42 30 1 31 30 33
REMARK SMILES IDX 31 34 32 35 38 36 33 37 37 38 34 39 35 40 36 41 39 42 40 43
REMARK SMILES IDX 41 44
REMARK H PARENT
REMARK Flexibility Score:   82.900
ROOT
ATOM      1  C   UNL     1      33.154  13.420  -2.785  1.00  0.00    -0.010 A
ATOM      2  C   UNL     1      32.366  14.257  -1.985  1.00  0.00     0.048 A
ATOM      3  C   UNL     1      31.465  15.152  -2.567  1.00  0.00     0.131 A
ATOM      4  F   UNL     1      30.738  15.939  -1.761  1.00  0.00    -0.207 F
ATOM      5  C   UNL     1      31.321  15.255  -3.952  1.00  0.00     0.038 A
ATOM      6  C   UNL     1      32.116  14.430  -4.743  1.00  0.00     0.131 A
ATOM      7  F   UNL     1      32.026  14.497  -6.078  1.00  0.00    -0.207 F
ATOM      8  C   UNL     1      33.018  13.529  -4.180  1.00  0.00     0.048 A
ENDROOT
BRANCH   1   9
ATOM      9  C   UNL     1      34.064  12.421  -2.189  1.00  0.00     0.010 A
ATOM     10  C   UNL     1      32.491   9.308  -3.130  1.00  0.00     0.091 A
ATOM     11  C   UNL     1      33.367   8.390  -2.587  1.00  0.00     0.140 A
ATOM     12  N   UNL     1      32.711  10.633  -3.004  1.00  0.00    -0.244 NA
ATOM     13  N   UNL     1      34.475   8.765  -1.903  1.00  0.00    -0.252 NA
ATOM     14  C   UNL     1      33.806  11.045  -2.336  1.00  0.00     0.097 A
ATOM     15  C   UNL     1      34.692  10.093  -1.776  1.00  0.00     0.089 A
ATOM     16  C   UNL     1      35.804  10.542  -1.077  1.00  0.00     0.030 A
ATOM     17  C   UNL     1      35.196  12.839  -1.471  1.00  0.00     0.011 A
ATOM     18  C   UNL     1      36.063  11.903  -0.918  1.00  0.00     0.003 A
BRANCH  10  19
ATOM     19  C   UNL     1      31.277   8.980  -3.854  1.00  0.00     0.020 A
ATOM     20  C   UNL     1      29.177   8.523  -5.612  1.00  0.00     0.128 A
ATOM     21  C   UNL     1      29.924   7.448  -5.132  1.00  0.00     0.047 A
ATOM     22  N   UNL     1      29.402   9.779  -5.177  1.00  0.00    -0.239 NA
ATOM     23  C   UNL     1      30.980   7.677  -4.249  1.00  0.00     0.016 A
ATOM     24  C   UNL     1      30.442   9.983  -4.334  1.00  0.00     0.124 A
BRANCH  20  25
ATOM     25  N   UNL     1      28.240   8.303  -6.619  1.00  0.00    -0.350 N
ATOM     26  N   UNL     1      26.661   7.057  -8.746  1.00  0.00    -0.303 NA
ATOM     27  C   UNL     1      27.783   7.972  -9.045  1.00  0.00     0.105 C
ATOM     28  C   UNL     1      26.039   7.482  -7.469  1.00  0.00     0.110 C
ATOM     29  C   UNL     1      28.844   7.994  -7.924  1.00  0.00     0.134 C
ATOM     30  C   UNL     1      27.040   7.497  -6.271  1.00  0.00     0.107 C
ATOM     31  C   UNL     1      25.678   7.079  -9.827  1.00  0.00     0.105 C
ATOM     32  G   UNL     1      26.303   7.968  -4.983  1.00  0.00     0.000 C
ENDBRANCH  20  25
ENDBRANCH  10  19
ENDBRANCH   1   9
BRANCH   5  33
ATOM     33  C   UNL     1      30.364  16.239  -4.562  1.00  0.00     0.126 C
BRANCH  33  34
ATOM     34  N   UNL     1      30.872  16.866  -5.801  1.00  0.00    -0.293 NA
ATOM     35  C   UNL     1      29.899  16.779  -6.896  1.00  0.00     0.101 C
ATOM     36  C   UNL     1      31.433  18.231  -5.580  1.00  0.00     0.082 C
ATOM     37  C   UNL     1      28.621  17.565  -6.670  1.00  0.00     0.152 C
ATOM     38  C   UNL     1      30.745  19.347  -6.379  1.00  0.00     0.157 C
ATOM     39  S   UNL     1      28.982  19.251  -6.253  1.00  0.00     0.153 S
ATOM     40  O   UNL     1      28.425  20.091  -7.298  1.00  0.00    -0.229 OA
ATOM     41  O   UNL     1      28.613  19.460  -4.865  1.00  0.00    -0.229 OA
BRANCH  36  42
ATOM     42  C   UNL     1      32.945  18.167  -5.935  1.00  0.00     0.089 C
BRANCH  42  43
ATOM     43  S   UNL     1      33.575  19.654  -6.801  1.00  0.00    -0.158 SA
BRANCH  43  44
ATOM     44  C   UNL     1      33.754  20.764  -5.345  1.00  0.00     0.096 C
ATOM     45  G   UNL     1      33.447  22.271  -5.584  1.00  0.00     0.000 C
ENDBRANCH  43  44
ENDBRANCH  42  43
ENDBRANCH  36  42
ENDBRANCH  33  34
ENDBRANCH   5  33
TORSDOF 0
ENDMDL
MODEL 6
REMARK VINA RESULT:     -10.8      0.793      1.922
REMARK SMILES CN1CCN2c3ccc(cn3)-c3cnc4cccc(c4n3)-c3cc(F)c(c(F)c3)CN3CCS(=O)(=O)C[C@@H]3CSC[C@H]2C1
REMARK SMILES IDX 22 1 23 2 24 3 25 4 26 5 27 6 28 7 29 8 19 9 12 10 13 11
REMARK SMILES IDX 21 12 14 13 20 14 15 15 16 16 18 17 17 18 9 19 6 20 7 21
REMARK SMILES IDX 11 22 8 23 10 24 5 25 2 26 3 27 43 28 4 29 42 30 1 31 30 33
REMARK SMILES IDX 31 34 32 35 38 36 33 37 37 38 34 39 35 40 36 41 39 42 40 43
REMARK SMILES IDX 41 44
REMARK H PARENT
REMARK Flexibility Score:   82.900
ROOT
ATOM      1  C   UNL     1      33.316  13.320  -3.566  1.00  0.00    -0.010 A
ATOM      2  C   UNL     1      33.517  14.702  -3.457  1.00  0.00     0.048 A
ATOM      3  C   UNL     1      32.776  15.590  -4.241  1.00  0.00     0.131 A
ATOM      4  F   UNL     1      33.010  16.904  -4.109  1.00  0.00    -0.207 F
ATOM      5  C   UNL     1      31.824  15.143  -5.160  1.00  0.00     0.038 A
ATOM      6  C   UNL     1      31.637  13.768  -5.273  1.00  0.00     0.131 A
ATOM      7  F   UNL     1      30.745  13.286  -6.147  1.00  0.00    -0.207 F
ATOM      8  C   UNL     1      32.365  12.867  -4.496  1.00  0.00     0.048 A
ENDROOT
BRANCH   1   9
ATOM      9  C   UNL     1      34.040  12.368  -2.699  1.00  0.00     0.010 A
ATOM     10  C   UNL     1      32.337   9.260  -3.398  1.00  0.00     0.091 A
ATOM     11  C   UNL     1      33.043   8.382  -2.601  1.00  0.00     0.140 A
ATOM     12  N   UNL     1      32.657  10.570  -3.437  1.00  0.00    -0.244 NA
ATOM     13  N   UNL     1      34.075   8.785  -1.820  1.00  0.00    -0.252 NA
ATOM     14  C   UNL     1      33.682  11.008  -2.679  1.00  0.00     0.097 A
ATOM     15  C   UNL     1      34.391  10.098  -1.859  1.00  0.00     0.089 A
ATOM     16  C   UNL     1      35.432  10.575  -1.074  1.00  0.00     0.030 A
ATOM     17  C   UNL     1      35.096  12.816  -1.888  1.00  0.00     0.011 A
ATOM     18  C   UNL     1      35.789  11.923  -1.079  1.00  0.00     0.003 A
BRANCH  10  19
ATOM     19  C   UNL     1      31.210   8.905  -4.241  1.00  0.00     0.020 A
ATOM     20  C   UNL     1      28.854   8.083  -5.457  1.00  0.00     0.128 A
ATOM     21  C   UNL     1      29.121   9.444  -5.315  1.00  0.00     0.047 A
ATOM     22  N   UNL     1      29.756   7.152  -5.087  1.00  0.00    -0.239 NA
ATOM     23  C   UNL     1      30.304   9.858  -4.703  1.00  0.00     0.016 A
ATOM     24  C   UNL     1      30.891   7.574  -4.479  1.00  0.00     0.124 A
BRANCH  20  25
ATOM     25  N   UNL     1      27.601   7.680  -5.912  1.00  0.00    -0.350 N
ATOM     26  N   UNL     1      24.805   7.689  -6.781  1.00  0.00    -0.303 NA
ATOM     27  C   UNL     1      25.191   7.299  -5.409  1.00  0.00     0.105 C
ATOM     28  C   UNL     1      25.900   7.301  -7.703  1.00  0.00     0.110 C
ATOM     29  C   UNL     1      26.515   7.952  -4.958  1.00  0.00     0.134 C
ATOM     30  C   UNL     1      27.272   7.950  -7.337  1.00  0.00     0.107 C
ATOM     31  C   UNL     1      23.555   7.038  -7.168  1.00  0.00     0.105 C
ATOM     32  G   UNL     1      28.358   7.475  -8.346  1.00  0.00     0.000 C
ENDBRANCH  20  25
ENDBRANCH  10  19
ENDBRANCH   1   9
BRANCH   5  33
ATOM     33  C   UNL     1      31.053  16.111  -6.011  1.00  0.00     0.126 C
BRANCH  33  34
ATOM     34  N   UNL     1      29.587  15.990  -5.861  1.00  0.00    -0.293 NA
ATOM     35  C   UNL     1      29.104  16.665  -4.651  1.00  0.00     0.101 C
ATOM     36  C   UNL     1      28.838  16.341  -7.104  1.00  0.00     0.082 C
ATOM     37  C   UNL     1      29.276  18.173  -4.656  1.00  0.00     0.152 C
ATOM     38  C   UNL     1      27.845  17.500  -6.952  1.00  0.00     0.157 C
ATOM     39  S   UNL     1      28.575  18.884  -6.122  1.00  0.00     0.153 S
ATOM     40  O   UNL     1      27.495  19.762  -5.710  1.00  0.00    -0.229 OA
ATOM     41  O   UNL     1      29.661  19.386  -6.943  1.00  0.00    -0.229 OA
BRANCH  36  42
ATOM     42  C   UNL     1      28.101  15.055  -7.572  1.00  0.00     0.089 C
BRANCH  42  43
ATOM     43  S   UNL     1      26.347  14.965  -7.045  1.00  0.00    -0.158 SA
BRANCH  43  44
ATOM     44  C   UNL     1      26.577  14.009  -5.491  1.00  0.00     0.096 C
ATOM     45  G   UNL     1      27.302  12.638  -5.624  1.00  0.00     0.000 C
ENDBRANCH  43  44
ENDBRANCH  42  43
ENDBRANCH  36  42
ENDBRANCH  33  34
ENDBRANCH   5  33
TORSDOF 0
ENDMDL
MODEL 7
REMARK VINA RESULT:     -10.8      1.297      1.572
REMARK SMILES CN1CCN2c3ccc(cn3)-c3cnc4cccc(c4n3)-c3cc(F)c(c(F)c3)CN3CCS(=O)(=O)C[C@@H]3CSC[C@H]2C1
REMARK SMILES IDX 22 1 23 2 24 3 25 4 26 5 27 6 28 7 29 8 19 9 12 10 13 11
REMARK SMILES IDX 21 12 14 13 20 14 15 15 16 16 18 17 17 18 9 19 6 20 7 21
REMARK SMILES IDX 11 22 8 23 10 24 5 25 2 26 3 27 43 28 4 29 42 30 1 31 30 33
REMARK SMILES IDX 31 34 32 35 38 36 33 37 37 38 34 39 35 40 36 41 39 42 40 43
REMARK SMILES IDX 41 44
REMARK H PARENT
REMARK Flexibility Score:   82.900
ROOT
ATOM      1  C   UNL     1      33.059  13.548  -3.165  1.00  0.00    -0.010 A
ATOM      2  C   UNL     1      32.255  14.362  -2.356  1.00  0.00     0.048 A
ATOM      3  C   UNL     1      31.430  15.333  -2.927  1.00  0.00     0.131 A
ATOM      4  F   UNL     1      30.685  16.095  -2.113  1.00  0.00    -0.207 F
ATOM      5  C   UNL     1      31.379  15.537  -4.308  1.00  0.00     0.038 A
ATOM      6  C   UNL     1      32.189  14.734  -5.105  1.00  0.00     0.131 A
ATOM      7  F   UNL     1      32.188  14.896  -6.436  1.00  0.00    -0.207 F
ATOM      8  C   UNL     1      33.017  13.757  -4.554  1.00  0.00     0.048 A
ENDROOT
BRANCH   1   9
ATOM      9  C   UNL     1      33.888  12.470  -2.587  1.00  0.00     0.010 A
ATOM     10  C   UNL     1      31.937   9.525  -3.341  1.00  0.00     0.091 A
ATOM     11  C   UNL     1      32.739   8.531  -2.817  1.00  0.00     0.140 A
ATOM     12  N   UNL     1      32.306  10.821  -3.270  1.00  0.00    -0.244 NA
ATOM     13  N   UNL     1      33.919   8.800  -2.206  1.00  0.00    -0.252 NA
ATOM     14  C   UNL     1      33.476  11.128  -2.675  1.00  0.00     0.097 A
ATOM     15  C   UNL     1      34.284  10.100  -2.134  1.00  0.00     0.089 A
ATOM     16  C   UNL     1      35.476  10.442  -1.511  1.00  0.00     0.030 A
ATOM     17  C   UNL     1      35.099  12.780  -1.945  1.00  0.00     0.011 A
ATOM     18  C   UNL     1      35.890  11.770  -1.409  1.00  0.00     0.003 A
BRANCH  10  19
ATOM     19  C   UNL     1      30.656   9.314  -3.988  1.00  0.00     0.020 A
ATOM     20  C   UNL     1      28.348   9.232  -5.529  1.00  0.00     0.128 A
ATOM     21  C   UNL     1      29.255   8.175  -5.585  1.00  0.00     0.047 A
ATOM     22  N   UNL     1      28.528  10.263  -4.678  1.00  0.00    -0.239 NA
ATOM     23  C   UNL     1      30.416   8.216  -4.811  1.00  0.00     0.016 A
ATOM     24  C   UNL     1      29.670  10.292  -3.949  1.00  0.00     0.124 A
BRANCH  20  25
ATOM     25  N   UNL     1      27.284   9.263  -6.426  1.00  0.00    -0.350 N
ATOM     26  N   UNL     1      25.613   8.867  -8.798  1.00  0.00    -0.303 NA
ATOM     27  C   UNL     1      26.346  10.129  -8.566  1.00  0.00     0.105 C
ATOM     28  C   UNL     1      25.235   8.297  -7.483  1.00  0.00     0.110 C
ATOM     29  C   UNL     1      27.606   9.931  -7.697  1.00  0.00     0.134 C
ATOM     30  C   UNL     1      26.460   8.030  -6.552  1.00  0.00     0.107 C
ATOM     31  C   UNL     1      24.423   9.107  -9.613  1.00  0.00     0.105 C
ATOM     32  G   UNL     1      25.967   7.449  -5.195  1.00  0.00     0.000 C
ENDBRANCH  20  25
ENDBRANCH  10  19
ENDBRANCH   1   9
BRANCH   5  33
ATOM     33  C   UNL     1      30.503  16.602  -4.903  1.00  0.00     0.126 C
BRANCH  33  34
ATOM     34  N   UNL     1      29.171  16.107  -5.316  1.00  0.00    -0.293 NA
ATOM     35  C   UNL     1      28.092  16.742  -4.553  1.00  0.00     0.101 C
ATOM     36  C   UNL     1      28.973  16.121  -6.796  1.00  0.00     0.082 C
ATOM     37  C   UNL     1      27.940  18.233  -4.792  1.00  0.00     0.152 C
ATOM     38  C   UNL     1      27.797  16.981  -7.279  1.00  0.00     0.157 C
ATOM     39  S   UNL     1      27.804  18.583  -6.526  1.00  0.00     0.153 S
ATOM     40  O   UNL     1      26.498  19.176  -6.753  1.00  0.00    -0.229 OA
ATOM     41  O   UNL     1      29.010  19.276  -6.941  1.00  0.00    -0.229 OA
BRANCH  36  42
ATOM     42  C   UNL     1      28.784  14.646  -7.246  1.00  0.00     0.089 C
BRANCH  42  43
ATOM     43  S   UNL     1      28.125  13.543  -5.939  1.00  0.00    -0.158 SA
BRANCH  43  44
ATOM     44  C   UNL     1      26.335  13.687  -6.337  1.00  0.00     0.096 C
ATOM     45  G   UNL     1      25.406  14.158  -5.181  1.00  0.00     0.000 C
ENDBRANCH  43  44
ENDBRANCH  42  43
ENDBRANCH  36  42
ENDBRANCH  33  34
ENDBRANCH   5  33
TORSDOF 0
ENDMDL
MODEL 8
REMARK VINA RESULT:     -10.7      1.390      2.822
REMARK SMILES CN1CCN2c3ccc(cn3)-c3cnc4cccc(c4n3)-c3cc(F)c(c(F)c3)CN3CCS(=O)(=O)C[C@@H]3CSC[C@H]2C1
REMARK SMILES IDX 22 1 23 2 24 3 25 4 26 5 27 6 28 7 29 8 19 9 12 10 13 11
REMARK SMILES IDX 21 12 14 13 20 14 15 15 16 16 18 17 17 18 9 19 6 20 7 21
REMARK SMILES IDX 11 22 8 23 10 24 5 25 2 26 3 27 43 28 4 29 42 30 1 31 30 33
REMARK SMILES IDX 31 34 32 35 38 36 33 37 37 38 34 39 35 40 36 41 39 42 40 43
REMARK SMILES IDX 41 44
REMARK H PARENT
REMARK Flexibility Score:   82.900
ROOT
ATOM      1  C   UNL     1      32.750  13.362  -2.977  1.00  0.00    -0.010 A
ATOM      2  C   UNL     1      32.240  14.433  -2.232  1.00  0.00     0.048 A
ATOM      3  C   UNL     1      31.235  15.247  -2.759  1.00  0.00     0.131 A
ATOM      4  F   UNL     1      30.784  16.266  -2.012  1.00  0.00    -0.207 F
ATOM      5  C   UNL     1      30.711  15.037  -4.036  1.00  0.00     0.038 A
ATOM      6  C   UNL     1      31.230  13.979  -4.776  1.00  0.00     0.131 A
ATOM      7  F   UNL     1      30.771  13.741  -6.012  1.00  0.00    -0.207 F
ATOM      8  C   UNL     1      32.231  13.154  -4.266  1.00  0.00     0.048 A
ENDROOT
BRANCH   1   9
ATOM      9  C   UNL     1      33.765  12.448  -2.413  1.00  0.00     0.010 A
ATOM     10  C   UNL     1      32.406   9.204  -3.239  1.00  0.00     0.091 A
ATOM     11  C   UNL     1      33.378   8.368  -2.727  1.00  0.00     0.140 A
ATOM     12  N   UNL     1      32.524  10.545  -3.140  1.00  0.00    -0.244 NA
ATOM     13  N   UNL     1      34.483   8.842  -2.102  1.00  0.00    -0.252 NA
ATOM     14  C   UNL     1      33.613  11.054  -2.530  1.00  0.00     0.097 A
ATOM     15  C   UNL     1      34.597  10.185  -2.002  1.00  0.00     0.089 A
ATOM     16  C   UNL     1      35.702  10.732  -1.364  1.00  0.00     0.030 A
ATOM     17  C   UNL     1      34.893  12.966  -1.756  1.00  0.00     0.011 A
ATOM     18  C   UNL     1      35.857  12.112  -1.234  1.00  0.00     0.003 A
BRANCH  10  19
ATOM     19  C   UNL     1      31.189   8.769  -3.899  1.00  0.00     0.020 A
ATOM     20  C   UNL     1      29.063   8.095  -5.552  1.00  0.00     0.128 A
ATOM     21  C   UNL     1      29.885   7.093  -5.038  1.00  0.00     0.047 A
ATOM     22  N   UNL     1      29.230   9.385  -5.198  1.00  0.00    -0.239 NA
ATOM     23  C   UNL     1      30.955   7.431  -4.208  1.00  0.00     0.016 A
ATOM     24  C   UNL     1      30.284   9.694  -4.405  1.00  0.00     0.124 A
BRANCH  20  25
ATOM     25  N   UNL     1      28.108   7.765  -6.510  1.00  0.00    -0.350 N
ATOM     26  N   UNL     1      26.490   6.292  -8.456  1.00  0.00    -0.303 NA
ATOM     27  C   UNL     1      27.606   7.166  -8.876  1.00  0.00     0.105 C
ATOM     28  C   UNL     1      25.892   6.858  -7.223  1.00  0.00     0.110 C
ATOM     29  C   UNL     1      28.687   7.311  -7.784  1.00  0.00     0.134 C
ATOM     30  C   UNL     1      26.914   7.005  -6.052  1.00  0.00     0.107 C
ATOM     31  C   UNL     1      25.487   6.194  -9.515  1.00  0.00     0.105 C
ATOM     32  G   UNL     1      26.202   7.617  -4.812  1.00  0.00     0.000 C
ENDBRANCH  20  25
ENDBRANCH  10  19
ENDBRANCH   1   9
BRANCH   5  33
ATOM     33  C   UNL     1      29.647  15.937  -4.595  1.00  0.00     0.126 C
BRANCH  33  34
ATOM     34  N   UNL     1      30.180  17.021  -5.450  1.00  0.00    -0.293 NA
ATOM     35  C   UNL     1      29.970  16.745  -6.875  1.00  0.00     0.101 C
ATOM     36  C   UNL     1      29.745  18.380  -5.013  1.00  0.00     0.082 C
ATOM     37  C   UNL     1      28.516  16.717  -7.307  1.00  0.00     0.152 C
ATOM     38  C   UNL     1      28.958  19.174  -6.065  1.00  0.00     0.157 C
ATOM     39  S   UNL     1      27.678  18.197  -6.800  1.00  0.00     0.153 S
ATOM     40  O   UNL     1      27.240  18.886  -8.001  1.00  0.00    -0.229 OA
ATOM     41  O   UNL     1      26.725  17.842  -5.766  1.00  0.00    -0.229 OA
BRANCH  36  42
ATOM     42  C   UNL     1      31.024  19.157  -4.595  1.00  0.00     0.089 C
BRANCH  42  43
ATOM     43  S   UNL     1      32.137  19.573  -5.991  1.00  0.00    -0.158 SA
BRANCH  43  44
ATOM     44  C   UNL     1      33.379  18.238  -5.757  1.00  0.00     0.096 C
ATOM     45  G   UNL     1      34.074  17.707  -7.045  1.00  0.00     0.000 C
ENDBRANCH  43  44
ENDBRANCH  42  43
ENDBRANCH  36  42
ENDBRANCH  33  34
ENDBRANCH   5  33
TORSDOF 0
ENDMDL
MODEL 9
REMARK VINA RESULT:     -10.7      1.471      2.681
REMARK SMILES CN1CCN2c3ccc(cn3)-c3cnc4cccc(c4n3)-c3cc(F)c(c(F)c3)CN3CCS(=O)(=O)C[C@@H]3CSC[C@H]2C1
REMARK SMILES IDX 22 1 23 2 24 3 25 4 26 5 27 6 28 7 29 8 19 9 12 10 13 11
REMARK SMILES IDX 21 12 14 13 20 14 15 15 16 16 18 17 17 18 9 19 6 20 7 21
REMARK SMILES IDX 11 22 8 23 10 24 5 25 2 26 3 27 43 28 4 29 42 30 1 31 30 33
REMARK SMILES IDX 31 34 32 35 38 36 33 37 37 38 34 39 35 40 36 41 39 42 40 43
REMARK SMILES IDX 41 44
REMARK H PARENT
REMARK Flexibility Score:   82.900
ROOT
ATOM      1  C   UNL     1      32.777  13.393  -2.919  1.00  0.00    -0.010 A
ATOM      2  C   UNL     1      32.414  13.348  -4.272  1.00  0.00     0.048 A
ATOM      3  C   UNL     1      31.490  14.259  -4.788  1.00  0.00     0.131 A
ATOM      4  F   UNL     1      31.166  14.171  -6.087  1.00  0.00    -0.207 F
ATOM      5  C   UNL     1      30.890  15.233  -3.987  1.00  0.00     0.038 A
ATOM      6  C   UNL     1      31.245  15.266  -2.642  1.00  0.00     0.131 A
ATOM      7  F   UNL     1      30.690  16.173  -1.827  1.00  0.00    -0.207 F
ATOM      8  C   UNL     1      32.168  14.367  -2.109  1.00  0.00     0.048 A
ENDROOT
BRANCH   1   9
ATOM      9  C   UNL     1      33.802  12.484  -2.368  1.00  0.00     0.010 A
ATOM     10  C   UNL     1      32.470   9.235  -3.221  1.00  0.00     0.091 A
ATOM     11  C   UNL     1      33.452   8.404  -2.721  1.00  0.00     0.140 A
ATOM     12  N   UNL     1      32.577  10.576  -3.109  1.00  0.00    -0.244 NA
ATOM     13  N   UNL     1      34.556   8.882  -2.096  1.00  0.00    -0.252 NA
ATOM     14  C   UNL     1      33.663  11.090  -2.498  1.00  0.00     0.097 A
ATOM     15  C   UNL     1      34.657  10.225  -1.983  1.00  0.00     0.089 A
ATOM     16  C   UNL     1      35.759  10.776  -1.343  1.00  0.00     0.030 A
ATOM     17  C   UNL     1      34.928  13.006  -1.710  1.00  0.00     0.011 A
ATOM     18  C   UNL     1      35.902  12.156  -1.200  1.00  0.00     0.003 A
BRANCH  10  19
ATOM     19  C   UNL     1      31.256   8.795  -3.881  1.00  0.00     0.020 A
ATOM     20  C   UNL     1      29.141   8.091  -5.536  1.00  0.00     0.128 A
ATOM     21  C   UNL     1      29.936   7.097  -4.967  1.00  0.00     0.047 A
ATOM     22  N   UNL     1      29.329   9.392  -5.236  1.00  0.00    -0.239 NA
ATOM     23  C   UNL     1      30.999   7.450  -4.135  1.00  0.00     0.016 A
ATOM     24  C   UNL     1      30.377   9.715  -4.441  1.00  0.00     0.124 A
BRANCH  20  25
ATOM     25  N   UNL     1      28.194   7.739  -6.495  1.00  0.00    -0.350 N
ATOM     26  N   UNL     1      26.525   6.200  -8.343  1.00  0.00    -0.303 NA
ATOM     27  C   UNL     1      27.722   6.933  -8.804  1.00  0.00     0.105 C
ATOM     28  C   UNL     1      25.935   6.939  -7.202  1.00  0.00     0.110 C
ATOM     29  C   UNL     1      28.776   7.107  -7.690  1.00  0.00     0.134 C
ATOM     30  C   UNL     1      26.927   7.128  -6.011  1.00  0.00     0.107 C
ATOM     31  C   UNL     1      25.553   6.071  -9.427  1.00  0.00     0.105 C
ATOM     32  G   UNL     1      26.227   7.923  -4.871  1.00  0.00     0.000 C
ENDBRANCH  20  25
ENDBRANCH  10  19
ENDBRANCH   1   9
BRANCH   5  33
ATOM     33  C   UNL     1      29.880  16.190  -4.554  1.00  0.00     0.126 C
BRANCH  33  34
ATOM     34  N   UNL     1      30.475  17.224  -5.429  1.00  0.00    -0.293 NA
ATOM     35  C   UNL     1      30.139  17.004  -6.841  1.00  0.00     0.101 C
ATOM     36  C   UNL     1      30.228  18.615  -4.945  1.00  0.00     0.082 C
ATOM     37  C   UNL     1      28.665  17.150  -7.171  1.00  0.00     0.152 C
ATOM     38  C   UNL     1      29.468  19.514  -5.929  1.00  0.00     0.157 C
ATOM     39  S   UNL     1      28.038  18.704  -6.587  1.00  0.00     0.153 S
ATOM     40  O   UNL     1      27.602  19.463  -7.744  1.00  0.00    -0.229 OA
ATOM     41  O   UNL     1      27.123  18.437  -5.493  1.00  0.00    -0.229 OA
BRANCH  36  42
ATOM     42  C   UNL     1      31.613  19.233  -4.607  1.00  0.00     0.089 C
BRANCH  42  43
ATOM     43  S   UNL     1      32.558  19.799  -6.072  1.00  0.00    -0.158 SA
BRANCH  43  44
ATOM     44  C   UNL     1      33.857  18.497  -6.081  1.00  0.00     0.096 C
ATOM     45  G   UNL     1      33.762  17.434  -7.214  1.00  0.00     0.000 C
ENDBRANCH  43  44
ENDBRANCH  42  43
ENDBRANCH  36  42
ENDBRANCH  33  34
ENDBRANCH   5  33
TORSDOF 0
ENDMDL
