MODEL 1
REMARK VINA RESULT:      -8.3      0.000      0.000
REMARK SMILES N#C[C@H]1CCN(C(=O)[C@@H]2NC(=O)c3c[nH]c4ncc(nc34)C3(CC3)CSC[C@H]3C[C@@H]32)C1
REMARK SMILES IDX 13 1 14 2 15 3 16 4 17 5 18 6 19 7 20 8 21 9 11 11 10 12
REMARK SMILES IDX 12 13 9 15 7 16 8 17 6 18 1 19 2 20 3 21 4 22 31 23 5 24
REMARK SMILES IDX 30 25 29 26 28 27 22 29 23 30 24 31 25 32 26 33 27 34
REMARK H PARENT 15 10 10 14
REMARK Flexibility Score:  106.900
ROOT
ATOM      1  C   UNL     1      32.928  14.548  -2.939  1.00  0.00     0.085 A
ATOM      2  C   UNL     1      34.200  15.023  -2.649  1.00  0.00     0.100 A
ATOM      3  N   UNL     1      35.055  13.949  -2.557  1.00  0.00    -0.344 N
ATOM      4  C   UNL     1      34.360  12.790  -2.759  1.00  0.00     0.156 A
ATOM      5  N   UNL     1      34.858  11.539  -2.748  1.00  0.00    -0.235 NA
ATOM      6  C   UNL     1      33.865  10.631  -2.985  1.00  0.00     0.138 A
ATOM      7  C   UNL     1      32.501  10.911  -3.197  1.00  0.00     0.067 A
ATOM      8  N   UNL     1      32.079  12.198  -3.190  1.00  0.00    -0.246 NA
ATOM      9  C   UNL     1      33.037  13.133  -2.979  1.00  0.00     0.120 A
ATOM     10  H   UNL     1      36.048  13.988  -2.372  1.00  0.00     0.168 HD
ENDROOT
BRANCH   1  11
ATOM     11  C   UNL     1      31.728  15.344  -3.148  1.00  0.00     0.255 C
ATOM     12  N   UNL     1      31.286  15.341  -4.446  1.00  0.00    -0.340 N
ATOM     13  O   UNL     1      31.165  15.959  -2.247  1.00  0.00    -0.269 OA
ATOM     14  H   UNL     1      31.851  14.872  -5.151  1.00  0.00     0.164 HD
BRANCH  12  15
ATOM     15  C   UNL     1      30.099  16.044  -4.878  1.00  0.00     0.175 C
BRANCH  15  16
ATOM     16  C   UNL     1      30.486  17.036  -6.007  1.00  0.00     0.245 C
ATOM     17  O   UNL     1      30.557  16.685  -7.190  1.00  0.00    -0.272 OA
BRANCH  16  18
ATOM     18  N   UNL     1      30.706  18.354  -5.656  1.00  0.00    -0.340 N
ATOM     19  N   UNL     1      34.009  20.613  -5.724  1.00  0.00    -0.198 NA
ATOM     20  C   UNL     1      32.995  20.416  -5.194  1.00  0.00     0.067 C
ATOM     21  C   UNL     1      31.699  20.185  -4.536  1.00  0.00     0.114 C
ATOM     22  C   UNL     1      30.542  20.691  -5.401  1.00  0.00     0.042 C
ATOM     23  C   UNL     1      31.399  18.694  -4.423  1.00  0.00     0.138 C
ATOM     24  C   UNL     1      30.279  19.544  -6.372  1.00  0.00     0.121 C
ENDBRANCH  16  18
ENDBRANCH  15  16
BRANCH  15  25
ATOM     25  C   UNL     1      29.082  14.991  -5.267  1.00  0.00     0.025 C
ATOM     26  C   UNL     1      28.713  13.821  -4.386  1.00  0.00     0.011 C
ATOM     27  C   UNL     1      27.709  14.929  -4.620  1.00  0.00     0.005 C
ATOM     28  G   UNL     1      26.475  14.665  -5.426  1.00  0.00     0.000 C
ENDBRANCH  15  25
ENDBRANCH  12  15
ENDBRANCH   1  11
BRANCH   7  29
ATOM     29  C   UNL     1      31.425   9.821  -3.413  1.00  0.00     0.023 C
ATOM     30  C   UNL     1      31.323   8.702  -2.379  1.00  0.00     0.015 C
ATOM     31  C   UNL     1      31.839   8.395  -3.753  1.00  0.00     0.015 C
BRANCH  29  32
ATOM     32  C   UNL     1      30.098  10.324  -3.988  1.00  0.00     0.083 C
BRANCH  32  33
ATOM     33  S   UNL     1      29.628   9.371  -5.464  1.00  0.00    -0.161 SA
BRANCH  33  34
ATOM     34  C   UNL     1      27.865   9.802  -5.556  1.00  0.00     0.073 C
ATOM     35  G   UNL     1      27.051   8.545  -5.539  1.00  0.00     0.000 C
ENDBRANCH  33  34
ENDBRANCH  32  33
ENDBRANCH  29  32
ENDBRANCH   7  29
TORSDOF 2
ENDMDL
MODEL 2
REMARK VINA RESULT:      -8.2      2.927      8.703
REMARK SMILES N#C[C@H]1CCN(C(=O)[C@@H]2NC(=O)c3c[nH]c4ncc(nc34)C3(CC3)CSC[C@H]3C[C@@H]32)C1
REMARK SMILES IDX 13 1 14 2 15 3 16 4 17 5 18 6 19 7 20 8 21 9 11 11 10 12
REMARK SMILES IDX 12 13 9 15 7 16 8 17 6 18 1 19 2 20 3 21 4 22 31 23 5 24
REMARK SMILES IDX 30 25 29 26 28 27 22 29 23 30 24 31 25 32 26 33 27 34
REMARK H PARENT 15 10 10 14
REMARK Flexibility Score:  106.900
ROOT
ATOM      1  C   UNL     1      27.685  16.763  -5.668  1.00  0.00     0.085 A
ATOM      2  C   UNL     1      26.443  16.892  -6.274  1.00  0.00     0.100 A
ATOM      3  N   UNL     1      26.371  18.135  -6.860  1.00  0.00    -0.344 N
ATOM      4  C   UNL     1      27.530  18.820  -6.627  1.00  0.00     0.156 A
ATOM      5  N   UNL     1      27.830  20.064  -7.045  1.00  0.00    -0.235 NA
ATOM      6  C   UNL     1      29.079  20.420  -6.618  1.00  0.00     0.138 A
ATOM      7  C   UNL     1      29.955  19.642  -5.838  1.00  0.00     0.067 A
ATOM      8  N   UNL     1      29.577  18.399  -5.454  1.00  0.00    -0.246 NA
ATOM      9  C   UNL     1      28.352  17.999  -5.875  1.00  0.00     0.120 A
ATOM     10  H   UNL     1      25.593  18.505  -7.388  1.00  0.00     0.168 HD
ENDROOT
BRANCH   1  11
ATOM     11  C   UNL     1      28.189  15.598  -4.957  1.00  0.00     0.255 C
ATOM     12  N   UNL     1      29.540  15.638  -4.727  1.00  0.00    -0.340 N
ATOM     13  O   UNL     1      27.473  14.669  -4.598  1.00  0.00    -0.269 OA
ATOM     14  H   UNL     1      30.079  16.404  -5.125  1.00  0.00     0.164 HD
BRANCH  12  15
ATOM     15  C   UNL     1      30.252  14.599  -4.016  1.00  0.00     0.175 C
BRANCH  15  16
ATOM     16  C   UNL     1      30.702  13.514  -5.032  1.00  0.00     0.245 C
ATOM     17  O   UNL     1      31.059  13.801  -6.180  1.00  0.00    -0.272 OA
BRANCH  16  18
ATOM     18  N   UNL     1      30.740  12.204  -4.596  1.00  0.00    -0.340 N
ATOM     19  N   UNL     1      29.579   8.787  -6.327  1.00  0.00    -0.198 NA
ATOM     20  C   UNL     1      29.719   9.352  -5.322  1.00  0.00     0.067 C
ATOM     21  C   UNL     1      29.920  10.055  -4.045  1.00  0.00     0.114 C
ATOM     22  C   UNL     1      31.405  10.135  -3.685  1.00  0.00     0.042 C
ATOM     23  C   UNL     1      29.529  11.525  -4.162  1.00  0.00     0.138 C
ATOM     24  C   UNL     1      31.908  11.350  -4.460  1.00  0.00     0.121 C
ENDBRANCH  16  18
ENDBRANCH  15  16
BRANCH  15  25
ATOM     25  C   UNL     1      31.373  15.276  -3.257  1.00  0.00     0.025 C
ATOM     26  C   UNL     1      31.573  15.142  -1.766  1.00  0.00     0.011 C
ATOM     27  C   UNL     1      32.557  14.493  -2.715  1.00  0.00     0.005 C
ATOM     28  G   UNL     1      33.956  15.017  -2.818  1.00  0.00     0.000 C
ENDBRANCH  15  25
ENDBRANCH  12  15
ENDBRANCH   1  11
BRANCH   7  29
ATOM     29  C   UNL     1      31.339  20.135  -5.353  1.00  0.00     0.023 C
ATOM     30  C   UNL     1      31.377  21.284  -4.349  1.00  0.00     0.015 C
ATOM     31  C   UNL     1      31.842  21.516  -5.755  1.00  0.00     0.015 C
BRANCH  29  32
ATOM     32  C   UNL     1      32.386  19.036  -5.153  1.00  0.00     0.083 C
BRANCH  32  33
ATOM     33  S   UNL     1      33.755  19.221  -6.337  1.00  0.00    -0.161 SA
BRANCH  33  34
ATOM     34  C   UNL     1      33.592  17.651  -7.238  1.00  0.00     0.073 C
ATOM     35  G   UNL     1      32.866  16.664  -6.378  1.00  0.00     0.000 C
ENDBRANCH  33  34
ENDBRANCH  32  33
ENDBRANCH  29  32
ENDBRANCH   7  29
TORSDOF 2
ENDMDL
MODEL 3
REMARK VINA RESULT:      -8.1      1.069      1.516
REMARK SMILES N#C[C@H]1CCN(C(=O)[C@@H]2NC(=O)c3c[nH]c4ncc(nc34)C3(CC3)CSC[C@H]3C[C@@H]32)C1
REMARK SMILES IDX 13 1 14 2 15 3 16 4 17 5 18 6 19 7 20 8 21 9 11 11 10 12
REMARK SMILES IDX 12 13 9 15 7 16 8 17 6 18 1 19 2 20 3 21 4 22 31 23 5 24
REMARK SMILES IDX 30 25 29 26 28 27 22 29 23 30 24 31 25 32 26 33 27 34
REMARK H PARENT 15 10 10 14
REMARK Flexibility Score:  106.900
ROOT
ATOM      1  C   UNL     1      33.383  14.478  -2.982  1.00  0.00     0.085 A
ATOM      2  C   UNL     1      34.662  14.865  -2.608  1.00  0.00     0.100 A
ATOM      3  N   UNL     1      35.419  13.733  -2.409  1.00  0.00    -0.344 N
ATOM      4  C   UNL     1      34.651  12.624  -2.626  1.00  0.00     0.156 A
ATOM      5  N   UNL     1      35.044  11.340  -2.531  1.00  0.00    -0.235 NA
ATOM      6  C   UNL     1      34.003  10.502  -2.815  1.00  0.00     0.138 A
ATOM      7  C   UNL     1      32.686  10.878  -3.146  1.00  0.00     0.067 A
ATOM      8  N   UNL     1      32.370  12.193  -3.217  1.00  0.00    -0.246 NA
ATOM      9  C   UNL     1      33.381  13.059  -2.963  1.00  0.00     0.120 A
ATOM     10  H   UNL     1      36.394  13.703  -2.146  1.00  0.00     0.168 HD
ENDROOT
BRANCH   1  11
ATOM     11  C   UNL     1      32.270  15.355  -3.315  1.00  0.00     0.255 C
ATOM     12  N   UNL     1      32.143  15.596  -4.658  1.00  0.00    -0.340 N
ATOM     13  O   UNL     1      31.518  15.834  -2.472  1.00  0.00    -0.269 OA
ATOM     14  H   UNL     1      32.853  15.227  -5.288  1.00  0.00     0.164 HD
BRANCH  12  15
ATOM     15  C   UNL     1      31.094  16.418  -5.219  1.00  0.00     0.175 C
BRANCH  15  16
ATOM     16  C   UNL     1      31.741  17.572  -6.032  1.00  0.00     0.245 C
ATOM     17  O   UNL     1      32.351  17.366  -7.087  1.00  0.00    -0.272 OA
BRANCH  16  18
ATOM     18  N   UNL     1      31.575  18.860  -5.563  1.00  0.00    -0.340 N
ATOM     19  N   UNL     1      28.843  21.664  -6.391  1.00  0.00    -0.198 NA
ATOM     20  C   UNL     1      29.942  21.462  -6.079  1.00  0.00     0.067 C
ATOM     21  C   UNL     1      31.329  21.211  -5.658  1.00  0.00     0.114 C
ATOM     22  C   UNL     1      31.392  20.770  -4.194  1.00  0.00     0.042 C
ATOM     23  C   UNL     1      31.914  20.007  -6.390  1.00  0.00     0.138 C
ATOM     24  C   UNL     1      31.112  19.270  -4.248  1.00  0.00     0.121 C
ENDBRANCH  16  18
ENDBRANCH  15  16
BRANCH  15  25
ATOM     25  C   UNL     1      30.191  15.498  -6.013  1.00  0.00     0.025 C
ATOM     26  C   UNL     1      30.081  14.013  -5.760  1.00  0.00     0.011 C
ATOM     27  C   UNL     1      28.918  14.919  -5.418  1.00  0.00     0.005 C
ATOM     28  G   UNL     1      27.650  14.841  -6.208  1.00  0.00     0.000 C
ENDBRANCH  15  25
ENDBRANCH  12  15
ENDBRANCH   1  11
BRANCH   7  29
ATOM     29  C   UNL     1      31.546   9.866  -3.409  1.00  0.00     0.023 C
ATOM     30  C   UNL     1      31.259   8.818  -2.337  1.00  0.00     0.015 C
ATOM     31  C   UNL     1      31.868   8.395  -3.640  1.00  0.00     0.015 C
BRANCH  29  32
ATOM     32  C   UNL     1      30.323  10.440  -4.128  1.00  0.00     0.083 C
BRANCH  32  33
ATOM     33  S   UNL     1      29.749   9.311  -5.435  1.00  0.00    -0.161 SA
BRANCH  33  34
ATOM     34  C   UNL     1      27.961   9.621  -5.342  1.00  0.00     0.073 C
ATOM     35  G   UNL     1      27.227   8.347  -5.620  1.00  0.00     0.000 C
ENDBRANCH  33  34
ENDBRANCH  32  33
ENDBRANCH  29  32
ENDBRANCH   7  29
TORSDOF 2
ENDMDL
MODEL 4
REMARK VINA RESULT:      -8.0      2.412      4.753
REMARK SMILES N#C[C@H]1CCN(C(=O)[C@@H]2NC(=O)c3c[nH]c4ncc(nc34)C3(CC3)CSC[C@H]3C[C@@H]32)C1
REMARK SMILES IDX 13 1 14 2 15 3 16 4 17 5 18 6 19 7 20 8 21 9 11 11 10 12
REMARK SMILES IDX 12 13 9 15 7 16 8 17 6 18 1 19 2 20 3 21 4 22 31 23 5 24
REMARK SMILES IDX 30 25 29 26 28 27 22 29 23 30 24 31 25 32 26 33 27 34
REMARK H PARENT 15 10 10 14
REMARK Flexibility Score:  106.900
ROOT
ATOM      1  C   UNL     1      28.433  14.026  -6.162  1.00  0.00     0.085 A
ATOM      2  C   UNL     1      27.200  13.434  -6.399  1.00  0.00     0.100 A
ATOM      3  N   UNL     1      27.179  12.208  -5.775  1.00  0.00    -0.344 N
ATOM      4  C   UNL     1      28.379  11.986  -5.160  1.00  0.00     0.156 A
ATOM      5  N   UNL     1      28.732  10.899  -4.448  1.00  0.00    -0.235 NA
ATOM      6  C   UNL     1      30.011  11.028  -3.987  1.00  0.00     0.138 A
ATOM      7  C   UNL     1      30.882  12.112  -4.211  1.00  0.00     0.067 A
ATOM      8  N   UNL     1      30.452  13.168  -4.942  1.00  0.00    -0.246 NA
ATOM      9  C   UNL     1      29.179  13.089  -5.401  1.00  0.00     0.120 A
ATOM     10  H   UNL     1      26.407  11.556  -5.759  1.00  0.00     0.168 HD
ENDROOT
BRANCH   1  11
ATOM     11  C   UNL     1      28.869  15.338  -6.615  1.00  0.00     0.255 C
ATOM     12  N   UNL     1      29.877  15.875  -5.857  1.00  0.00    -0.340 N
ATOM     13  O   UNL     1      28.380  15.911  -7.585  1.00  0.00    -0.269 OA
ATOM     14  H   UNL     1      30.176  15.375  -5.022  1.00  0.00     0.164 HD
BRANCH  12  15
ATOM     15  C   UNL     1      30.482  17.157  -6.139  1.00  0.00     0.175 C
BRANCH  15  16
ATOM     16  C   UNL     1      29.782  18.242  -5.276  1.00  0.00     0.245 C
ATOM     17  O   UNL     1      28.827  17.975  -4.539  1.00  0.00    -0.272 OA
BRANCH  16  18
ATOM     18  N   UNL     1      30.294  19.525  -5.319  1.00  0.00    -0.340 N
ATOM     19  N   UNL     1      34.053  20.896  -5.292  1.00  0.00    -0.198 NA
ATOM     20  C   UNL     1      32.953  21.113  -4.991  1.00  0.00     0.067 C
ATOM     21  C   UNL     1      31.557  21.403  -4.631  1.00  0.00     0.114 C
ATOM     22  C   UNL     1      30.732  21.775  -5.866  1.00  0.00     0.042 C
ATOM     23  C   UNL     1      30.849  20.149  -4.128  1.00  0.00     0.138 C
ATOM     24  C   UNL     1      30.325  20.427  -6.457  1.00  0.00     0.121 C
ENDBRANCH  16  18
ENDBRANCH  15  16
BRANCH  15  25
ATOM     25  C   UNL     1      31.969  17.004  -5.898  1.00  0.00     0.025 C
ATOM     26  C   UNL     1      32.774  15.817  -6.371  1.00  0.00     0.011 C
ATOM     27  C   UNL     1      32.981  17.168  -7.020  1.00  0.00     0.005 C
ATOM     28  G   UNL     1      34.265  17.910  -6.814  1.00  0.00     0.000 C
ENDBRANCH  15  25
ENDBRANCH  12  15
ENDBRANCH   1  11
BRANCH   7  29
ATOM     29  C   UNL     1      32.338  12.164  -3.692  1.00  0.00     0.023 C
ATOM     30  C   UNL     1      32.662  13.146  -2.569  1.00  0.00     0.015 C
ATOM     31  C   UNL     1      33.197  13.396  -3.947  1.00  0.00     0.015 C
BRANCH  29  32
ATOM     32  C   UNL     1      33.051  10.811  -3.624  1.00  0.00     0.083 C
BRANCH  32  33
ATOM     33  S   UNL     1      34.569  10.927  -2.629  1.00  0.00    -0.161 SA
BRANCH  33  34
ATOM     34  C   UNL     1      34.397   9.415  -1.634  1.00  0.00     0.073 C
ATOM     35  G   UNL     1      33.011   8.876  -1.797  1.00  0.00     0.000 C
ENDBRANCH  33  34
ENDBRANCH  32  33
ENDBRANCH  29  32
ENDBRANCH   7  29
TORSDOF 2
ENDMDL
MODEL 5
REMARK VINA RESULT:      -7.9      2.955      8.387
REMARK SMILES N#C[C@H]1CCN(C(=O)[C@@H]2NC(=O)c3c[nH]c4ncc(nc34)C3(CC3)CSC[C@H]3C[C@@H]32)C1
REMARK SMILES IDX 13 1 14 2 15 3 16 4 17 5 18 6 19 7 20 8 21 9 11 11 10 12
REMARK SMILES IDX 12 13 9 15 7 16 8 17 6 18 1 19 2 20 3 21 4 22 31 23 5 24
REMARK SMILES IDX 30 25 29 26 28 27 22 29 23 30 24 31 25 32 26 33 27 34
REMARK H PARENT 15 10 10 14
REMARK Flexibility Score:  106.900
ROOT
ATOM      1  C   UNL     1      27.331  17.360  -6.042  1.00  0.00     0.085 A
ATOM      2  C   UNL     1      26.212  17.623  -6.822  1.00  0.00     0.100 A
ATOM      3  N   UNL     1      26.393  18.835  -7.447  1.00  0.00    -0.344 N
ATOM      4  C   UNL     1      27.592  19.371  -7.071  1.00  0.00     0.156 A
ATOM      5  N   UNL     1      28.114  20.543  -7.478  1.00  0.00    -0.235 NA
ATOM      6  C   UNL     1      29.329  20.752  -6.889  1.00  0.00     0.138 A
ATOM      7  C   UNL     1      29.976  19.903  -5.970  1.00  0.00     0.067 A
ATOM      8  N   UNL     1      29.382  18.741  -5.608  1.00  0.00    -0.246 NA
ATOM      9  C   UNL     1      28.183  18.486  -6.187  1.00  0.00     0.120 A
ATOM     10  H   UNL     1      25.753  19.279  -8.091  1.00  0.00     0.168 HD
ENDROOT
BRANCH   1  11
ATOM     11  C   UNL     1      27.569  16.174  -5.233  1.00  0.00     0.255 C
ATOM     12  N   UNL     1      28.895  15.851  -5.109  1.00  0.00    -0.340 N
ATOM     13  O   UNL     1      26.666  15.525  -4.712  1.00  0.00    -0.269 OA
ATOM     14  H   UNL     1      29.578  16.391  -5.636  1.00  0.00     0.164 HD
BRANCH  12  15
ATOM     15  C   UNL     1      29.365  14.727  -4.331  1.00  0.00     0.175 C
BRANCH  15  16
ATOM     16  C   UNL     1      29.644  13.536  -5.288  1.00  0.00     0.245 C
ATOM     17  O   UNL     1      29.068  13.422  -6.375  1.00  0.00    -0.272 OA
BRANCH  16  18
ATOM     18  N   UNL     1      30.604  12.618  -4.908  1.00  0.00    -0.340 N
ATOM     19  N   UNL     1      33.668  12.874  -2.347  1.00  0.00    -0.198 NA
ATOM     20  C   UNL     1      33.274  12.382  -3.321  1.00  0.00     0.067 C
ATOM     21  C   UNL     1      32.769  11.737  -4.543  1.00  0.00     0.114 C
ATOM     22  C   UNL     1      31.726  10.666  -4.212  1.00  0.00     0.042 C
ATOM     23  C   UNL     1      31.971  12.721  -5.393  1.00  0.00     0.138 C
ATOM     24  C   UNL     1      30.426  11.451  -4.061  1.00  0.00     0.121 C
ENDBRANCH  16  18
ENDBRANCH  15  16
BRANCH  15  25
ATOM     25  C   UNL     1      30.562  15.211  -3.539  1.00  0.00     0.025 C
ATOM     26  C   UNL     1      30.766  16.649  -3.129  1.00  0.00     0.011 C
ATOM     27  C   UNL     1      30.444  15.610  -2.078  1.00  0.00     0.005 C
ATOM     28  G   UNL     1      31.480  15.215  -1.072  1.00  0.00     0.000 C
ENDBRANCH  15  25
ENDBRANCH  12  15
ENDBRANCH   1  11
BRANCH   7  29
ATOM     29  C   UNL     1      31.335  20.232  -5.308  1.00  0.00     0.023 C
ATOM     30  C   UNL     1      31.339  21.193  -4.122  1.00  0.00     0.015 C
ATOM     31  C   UNL     1      31.926  21.632  -5.430  1.00  0.00     0.015 C
BRANCH  29  32
ATOM     32  C   UNL     1      32.316  19.060  -5.224  1.00  0.00     0.083 C
BRANCH  32  33
ATOM     33  S   UNL     1      33.576  19.172  -6.532  1.00  0.00    -0.161 SA
BRANCH  33  34
ATOM     34  C   UNL     1      33.516  17.467  -7.158  1.00  0.00     0.073 C
ATOM     35  G   UNL     1      32.401  16.734  -6.481  1.00  0.00     0.000 C
ENDBRANCH  33  34
ENDBRANCH  32  33
ENDBRANCH  29  32
ENDBRANCH   7  29
TORSDOF 2
ENDMDL
MODEL 6
REMARK VINA RESULT:      -7.9      0.912      1.192
REMARK SMILES N#C[C@H]1CCN(C(=O)[C@@H]2NC(=O)c3c[nH]c4ncc(nc34)C3(CC3)CSC[C@H]3C[C@@H]32)C1
REMARK SMILES IDX 13 1 14 2 15 3 16 4 17 5 18 6 19 7 20 8 21 9 11 11 10 12
REMARK SMILES IDX 12 13 9 15 7 16 8 17 6 18 1 19 2 20 3 21 4 22 31 23 5 24
REMARK SMILES IDX 30 25 29 26 28 27 22 29 23 30 24 31 25 32 26 33 27 34
REMARK H PARENT 15 10 10 14
REMARK Flexibility Score:  106.900
ROOT
ATOM      1  C   UNL     1      32.748  14.702  -3.137  1.00  0.00     0.085 A
ATOM      2  C   UNL     1      33.994  15.229  -2.828  1.00  0.00     0.100 A
ATOM      3  N   UNL     1      34.883  14.188  -2.685  1.00  0.00    -0.344 N
ATOM      4  C   UNL     1      34.233  13.001  -2.872  1.00  0.00     0.156 A
ATOM      5  N   UNL     1      34.772  11.769  -2.813  1.00  0.00    -0.235 NA
ATOM      6  C   UNL     1      33.817  10.821  -3.050  1.00  0.00     0.138 A
ATOM      7  C   UNL     1      32.451  11.048  -3.304  1.00  0.00     0.067 A
ATOM      8  N   UNL     1      31.985  12.319  -3.343  1.00  0.00    -0.246 NA
ATOM      9  C   UNL     1      32.906  13.292  -3.134  1.00  0.00     0.120 A
ATOM     10  H   UNL     1      35.868  14.266  -2.475  1.00  0.00     0.168 HD
ENDROOT
BRANCH   1  11
ATOM     11  C   UNL     1      31.527  15.450  -3.399  1.00  0.00     0.255 C
ATOM     12  N   UNL     1      31.020  15.252  -4.656  1.00  0.00    -0.340 N
ATOM     13  O   UNL     1      31.003  16.189  -2.570  1.00  0.00    -0.269 OA
ATOM     14  H   UNL     1      31.555  14.687  -5.313  1.00  0.00     0.164 HD
BRANCH  12  15
ATOM     15  C   UNL     1      29.802  15.874  -5.125  1.00  0.00     0.175 C
BRANCH  15  16
ATOM     16  C   UNL     1      30.115  16.683  -6.413  1.00  0.00     0.245 C
ATOM     17  O   UNL     1      29.677  16.346  -7.519  1.00  0.00    -0.272 OA
BRANCH  16  18
ATOM     18  N   UNL     1      30.868  17.833  -6.282  1.00  0.00    -0.340 N
ATOM     19  N   UNL     1      30.981  20.632  -3.425  1.00  0.00    -0.198 NA
ATOM     20  C   UNL     1      31.116  20.415  -4.557  1.00  0.00     0.067 C
ATOM     21  C   UNL     1      31.313  20.138  -5.989  1.00  0.00     0.114 C
ATOM     22  C   UNL     1      32.630  19.397  -6.233  1.00  0.00     0.042 C
ATOM     23  C   UNL     1      30.276  19.144  -6.502  1.00  0.00     0.138 C
ATOM     24  C   UNL     1      32.284  17.933  -5.973  1.00  0.00     0.121 C
ENDBRANCH  16  18
ENDBRANCH  15  16
BRANCH  15  25
ATOM     25  C   UNL     1      28.780  14.770  -5.290  1.00  0.00     0.025 C
ATOM     26  C   UNL     1      28.511  13.716  -4.242  1.00  0.00     0.011 C
ATOM     27  C   UNL     1      27.467  14.775  -4.524  1.00  0.00     0.005 C
ATOM     28  G   UNL     1      26.176  14.398  -5.180  1.00  0.00     0.000 C
ENDBRANCH  15  25
ENDBRANCH  12  15
ENDBRANCH   1  11
BRANCH   7  29
ATOM     29  C   UNL     1      31.418   9.916  -3.517  1.00  0.00     0.023 C
ATOM     30  C   UNL     1      31.321   8.828  -2.450  1.00  0.00     0.015 C
ATOM     31  C   UNL     1      31.889   8.494  -3.796  1.00  0.00     0.015 C
BRANCH  29  32
ATOM     32  C   UNL     1      30.094  10.355  -4.148  1.00  0.00     0.083 C
BRANCH  32  33
ATOM     33  S   UNL     1      29.621   9.240  -5.505  1.00  0.00    -0.161 SA
BRANCH  33  34
ATOM     34  C   UNL     1      27.867   9.685  -5.668  1.00  0.00     0.073 C
ATOM     35  G   UNL     1      27.392   9.316  -7.038  1.00  0.00     0.000 C
ENDBRANCH  33  34
ENDBRANCH  32  33
ENDBRANCH  29  32
ENDBRANCH   7  29
TORSDOF 2
ENDMDL
MODEL 7
REMARK VINA RESULT:      -7.7      1.721      1.952
REMARK SMILES N#C[C@H]1CCN(C(=O)[C@@H]2NC(=O)c3c[nH]c4ncc(nc34)C3(CC3)CSC[C@H]3C[C@@H]32)C1
REMARK SMILES IDX 13 1 14 2 15 3 16 4 17 5 18 6 19 7 20 8 21 9 11 11 10 12
REMARK SMILES IDX 12 13 9 15 7 16 8 17 6 18 1 19 2 20 3 21 4 22 31 23 5 24
REMARK SMILES IDX 30 25 29 26 28 27 22 29 23 30 24 31 25 32 26 33 27 34
REMARK H PARENT 15 10 10 14
REMARK Flexibility Score:  106.900
ROOT
ATOM      1  C   UNL     1      32.447  14.639  -3.342  1.00  0.00     0.085 A
ATOM      2  C   UNL     1      33.348  15.692  -3.263  1.00  0.00     0.100 A
ATOM      3  N   UNL     1      34.578  15.187  -2.908  1.00  0.00    -0.344 N
ATOM      4  C   UNL     1      34.485  13.835  -2.734  1.00  0.00     0.156 A
ATOM      5  N   UNL     1      35.480  12.996  -2.389  1.00  0.00    -0.235 NA
ATOM      6  C   UNL     1      35.014  11.715  -2.306  1.00  0.00     0.138 A
ATOM      7  C   UNL     1      33.690  11.285  -2.523  1.00  0.00     0.067 A
ATOM      8  N   UNL     1      32.745  12.193  -2.864  1.00  0.00    -0.246 NA
ATOM      9  C   UNL     1      33.172  13.475  -2.978  1.00  0.00     0.120 A
ATOM     10  H   UNL     1      35.432  15.714  -2.791  1.00  0.00     0.168 HD
ENDROOT
BRANCH   1  11
ATOM     11  C   UNL     1      31.042  14.722  -3.711  1.00  0.00     0.255 C
ATOM     12  N   UNL     1      30.713  15.883  -4.362  1.00  0.00    -0.340 N
ATOM     13  O   UNL     1      30.229  13.836  -3.464  1.00  0.00    -0.269 OA
ATOM     14  H   UNL     1      31.425  16.604  -4.461  1.00  0.00     0.164 HD
BRANCH  12  15
ATOM     15  C   UNL     1      29.380  16.169  -4.844  1.00  0.00     0.175 C
BRANCH  15  16
ATOM     16  C   UNL     1      29.129  17.698  -4.749  1.00  0.00     0.245 C
ATOM     17  O   UNL     1      28.072  18.161  -4.309  1.00  0.00    -0.272 OA
BRANCH  16  18
ATOM     18  N   UNL     1      30.154  18.542  -5.133  1.00  0.00    -0.340 N
ATOM     19  N   UNL     1      33.952  17.820  -6.166  1.00  0.00    -0.198 NA
ATOM     20  C   UNL     1      33.220  18.578  -5.679  1.00  0.00     0.067 C
ATOM     21  C   UNL     1      32.292  19.552  -5.084  1.00  0.00     0.114 C
ATOM     22  C   UNL     1      31.438  20.230  -6.159  1.00  0.00     0.042 C
ATOM     23  C   UNL     1      31.244  18.856  -4.222  1.00  0.00     0.138 C
ATOM     24  C   UNL     1      30.294  19.248  -6.394  1.00  0.00     0.121 C
ENDBRANCH  16  18
ENDBRANCH  15  16
BRANCH  15  25
ATOM     25  C   UNL     1      29.281  15.585  -6.237  1.00  0.00     0.025 C
ATOM     26  C   UNL     1      28.606  14.270  -6.546  1.00  0.00     0.011 C
ATOM     27  C   UNL     1      27.970  15.564  -7.004  1.00  0.00     0.005 C
ATOM     28  G   UNL     1      27.910  15.896  -8.463  1.00  0.00     0.000 C
ENDBRANCH  15  25
ENDBRANCH  12  15
ENDBRANCH   1  11
BRANCH   7  29
ATOM     29  C   UNL     1      33.228   9.817  -2.363  1.00  0.00     0.023 C
ATOM     30  C   UNL     1      33.919   8.961  -1.304  1.00  0.00     0.015 C
ATOM     31  C   UNL     1      34.158   8.676  -2.756  1.00  0.00     0.015 C
BRANCH  29  32
ATOM     32  C   UNL     1      31.724   9.589  -2.531  1.00  0.00     0.083 C
BRANCH  32  33
ATOM     33  S   UNL     1      31.384   8.554  -3.988  1.00  0.00    -0.161 SA
BRANCH  33  34
ATOM     34  C   UNL     1      30.147   9.594  -4.819  1.00  0.00     0.073 C
ATOM     35  G   UNL     1      29.591   8.852  -5.994  1.00  0.00     0.000 C
ENDBRANCH  33  34
ENDBRANCH  32  33
ENDBRANCH  29  32
ENDBRANCH   7  29
TORSDOF 2
ENDMDL
MODEL 8
REMARK VINA RESULT:      -7.7      1.970      3.908
REMARK SMILES N#C[C@H]1CCN(C(=O)[C@@H]2NC(=O)c3c[nH]c4ncc(nc34)C3(CC3)CSC[C@H]3C[C@@H]32)C1
REMARK SMILES IDX 13 1 14 2 15 3 16 4 17 5 18 6 19 7 20 8 21 9 11 11 10 12
REMARK SMILES IDX 12 13 9 15 7 16 8 17 6 18 1 19 2 20 3 21 4 22 31 23 5 24
REMARK SMILES IDX 30 25 29 26 28 27 22 29 23 30 24 31 25 32 26 33 27 34
REMARK H PARENT 15 10 10 14
REMARK Flexibility Score:  106.900
ROOT
ATOM      1  C   UNL     1      33.948  13.709  -3.035  1.00  0.00     0.085 A
ATOM      2  C   UNL     1      35.199  13.899  -2.463  1.00  0.00     0.100 A
ATOM      3  N   UNL     1      35.709  12.670  -2.113  1.00  0.00    -0.344 N
ATOM      4  C   UNL     1      34.806  11.693  -2.426  1.00  0.00     0.156 A
ATOM      5  N   UNL     1      34.953  10.369  -2.234  1.00  0.00    -0.235 NA
ATOM      6  C   UNL     1      33.842   9.701  -2.666  1.00  0.00     0.138 A
ATOM      7  C   UNL     1      32.680  10.270  -3.221  1.00  0.00     0.067 A
ATOM      8  N   UNL     1      32.609  11.614  -3.378  1.00  0.00    -0.246 NA
ATOM      9  C   UNL     1      33.700  12.313  -2.981  1.00  0.00     0.120 A
ATOM     10  H   UNL     1      36.609  12.493  -1.691  1.00  0.00     0.168 HD
ENDROOT
BRANCH   1  11
ATOM     11  C   UNL     1      33.070  14.739  -3.570  1.00  0.00     0.255 C
ATOM     12  N   UNL     1      32.225  14.286  -4.550  1.00  0.00    -0.340 N
ATOM     13  O   UNL     1      33.086  15.903  -3.181  1.00  0.00    -0.269 OA
ATOM     14  H   UNL     1      32.327  13.327  -4.874  1.00  0.00     0.164 HD
BRANCH  12  15
ATOM     15  C   UNL     1      31.251  15.129  -5.205  1.00  0.00     0.175 C
BRANCH  15  16
ATOM     16  C   UNL     1      29.955  15.157  -4.350  1.00  0.00     0.245 C
ATOM     17  O   UNL     1      29.961  14.882  -3.145  1.00  0.00    -0.272 OA
BRANCH  16  18
ATOM     18  N   UNL     1      28.785  15.551  -4.970  1.00  0.00    -0.340 N
ATOM     19  N   UNL     1      24.977  14.456  -4.414  1.00  0.00    -0.198 NA
ATOM     20  C   UNL     1      25.763  14.828  -5.182  1.00  0.00     0.067 C
ATOM     21  C   UNL     1      26.750  15.323  -6.154  1.00  0.00     0.114 C
ATOM     22  C   UNL     1      27.043  16.810  -5.936  1.00  0.00     0.042 C
ATOM     23  C   UNL     1      28.115  14.682  -5.924  1.00  0.00     0.138 C
ATOM     24  C   UNL     1      28.093  16.821  -4.828  1.00  0.00     0.121 C
ENDBRANCH  16  18
ENDBRANCH  15  16
BRANCH  15  25
ATOM     25  C   UNL     1      31.909  16.475  -5.422  1.00  0.00     0.025 C
ATOM     26  C   UNL     1      32.811  16.785  -6.593  1.00  0.00     0.011 C
ATOM     27  C   UNL     1      31.443  17.427  -6.511  1.00  0.00     0.005 C
ATOM     28  G   UNL     1      31.318  18.898  -6.265  1.00  0.00     0.000 C
ENDBRANCH  15  25
ENDBRANCH  12  15
ENDBRANCH   1  11
BRANCH   7  29
ATOM     29  C   UNL     1      31.439   9.448  -3.644  1.00  0.00     0.023 C
ATOM     30  C   UNL     1      30.832   8.493  -2.620  1.00  0.00     0.015 C
ATOM     31  C   UNL     1      31.546   7.938  -3.816  1.00  0.00     0.015 C
BRANCH  29  32
ATOM     32  C   UNL     1      30.445  10.189  -4.541  1.00  0.00     0.083 C
BRANCH  32  33
ATOM     33  S   UNL     1      29.646   9.045  -5.708  1.00  0.00    -0.161 SA
BRANCH  33  34
ATOM     34  C   UNL     1      27.912   9.542  -5.483  1.00  0.00     0.073 C
ATOM     35  G   UNL     1      27.857  11.006  -5.176  1.00  0.00     0.000 C
ENDBRANCH  33  34
ENDBRANCH  32  33
ENDBRANCH  29  32
ENDBRANCH   7  29
TORSDOF 2
ENDMDL
MODEL 9
REMARK VINA RESULT:      -7.7      1.802      4.266
REMARK SMILES N#C[C@H]1CCN(C(=O)[C@@H]2NC(=O)c3c[nH]c4ncc(nc34)C3(CC3)CSC[C@H]3C[C@@H]32)C1
REMARK SMILES IDX 13 1 14 2 15 3 16 4 17 5 18 6 19 7 20 8 21 9 11 11 10 12
REMARK SMILES IDX 12 13 9 15 7 16 8 17 6 18 1 19 2 20 3 21 4 22 31 23 5 24
REMARK SMILES IDX 30 25 29 26 28 27 22 29 23 30 24 31 25 32 26 33 27 34
REMARK H PARENT 15 10 10 14
REMARK Flexibility Score:  106.900
ROOT
ATOM      1  C   UNL     1      32.962  14.757  -4.021  1.00  0.00     0.085 A
ATOM      2  C   UNL     1      33.985  15.353  -3.297  1.00  0.00     0.100 A
ATOM      3  N   UNL     1      34.626  14.379  -2.565  1.00  0.00    -0.344 N
ATOM      4  C   UNL     1      34.024  13.172  -2.783  1.00  0.00     0.156 A
ATOM      5  N   UNL     1      34.373  11.989  -2.245  1.00  0.00    -0.235 NA
ATOM      6  C   UNL     1      33.542  11.000  -2.691  1.00  0.00     0.138 A
ATOM      7  C   UNL     1      32.453  11.150  -3.572  1.00  0.00     0.067 A
ATOM      8  N   UNL     1      32.165  12.376  -4.068  1.00  0.00    -0.246 NA
ATOM      9  C   UNL     1      32.980  13.383  -3.667  1.00  0.00     0.120 A
ATOM     10  H   UNL     1      35.420  14.513  -1.956  1.00  0.00     0.168 HD
ENDROOT
BRANCH   1  11
ATOM     11  C   UNL     1      32.052  15.415  -4.946  1.00  0.00     0.255 C
ATOM     12  N   UNL     1      31.457  16.536  -4.428  1.00  0.00    -0.340 N
ATOM     13  O   UNL     1      31.838  15.005  -6.083  1.00  0.00    -0.269 OA
ATOM     14  H   UNL     1      31.625  16.767  -3.450  1.00  0.00     0.164 HD
BRANCH  12  15
ATOM     15  C   UNL     1      30.537  17.361  -5.176  1.00  0.00     0.175 C
BRANCH  15  16
ATOM     16  C   UNL     1      29.084  16.952  -4.812  1.00  0.00     0.245 C
ATOM     17  O   UNL     1      28.377  17.642  -4.070  1.00  0.00    -0.272 OA
BRANCH  16  18
ATOM     18  N   UNL     1      28.579  15.801  -5.385  1.00  0.00    -0.340 N
ATOM     19  N   UNL     1      24.971  14.083  -5.173  1.00  0.00    -0.198 NA
ATOM     20  C   UNL     1      26.110  13.903  -5.298  1.00  0.00     0.067 C
ATOM     21  C   UNL     1      27.551  13.672  -5.482  1.00  0.00     0.114 C
ATOM     22  C   UNL     1      28.002  14.080  -6.888  1.00  0.00     0.042 C
ATOM     23  C   UNL     1      28.373  14.599  -4.592  1.00  0.00     0.138 C
ATOM     24  C   UNL     1      28.232  15.585  -6.779  1.00  0.00     0.121 C
ENDBRANCH  16  18
ENDBRANCH  15  16
BRANCH  15  25
ATOM     25  C   UNL     1      30.894  18.802  -4.876  1.00  0.00     0.025 C
ATOM     26  C   UNL     1      32.265  19.390  -5.114  1.00  0.00     0.011 C
ATOM     27  C   UNL     1      31.104  19.821  -5.984  1.00  0.00     0.005 C
ATOM     28  G   UNL     1      30.566  21.213  -5.880  1.00  0.00     0.000 C
ENDBRANCH  15  25
ENDBRANCH  12  15
ENDBRANCH   1  11
BRANCH   7  29
ATOM     29  C   UNL     1      31.526   9.986  -3.995  1.00  0.00     0.023 C
ATOM     30  C   UNL     1      30.857   9.168  -2.893  1.00  0.00     0.015 C
ATOM     31  C   UNL     1      31.937   8.544  -3.724  1.00  0.00     0.015 C
BRANCH  29  32
ATOM     32  C   UNL     1      30.677  10.253  -5.240  1.00  0.00     0.083 C
BRANCH  32  33
ATOM     33  S   UNL     1      28.903  10.154  -4.849  1.00  0.00    -0.161 SA
BRANCH  33  34
ATOM     34  C   UNL     1      28.377   8.962  -6.116  1.00  0.00     0.073 C
ATOM     35  G   UNL     1      28.881   7.602  -5.748  1.00  0.00     0.000 C
ENDBRANCH  33  34
ENDBRANCH  32  33
ENDBRANCH  29  32
ENDBRANCH   7  29
TORSDOF 2
ENDMDL
