MODEL 1
REMARK VINA RESULT:     -10.9      0.000      0.000
REMARK SMILES CN1CCN2c3ccc(cc3)-c3cnc4cccc(c4n3)-c3cc(F)c(c(F)c3)CN3CCOC[C@@H]3CCC[C@H]2C1
REMARK SMILES IDX 12 1 13 2 14 3 15 4 16 5 17 6 18 7 19 8 20 9 21 10 9 11 6 12
REMARK SMILES IDX 7 13 11 14 8 15 10 16 5 17 2 18 3 19 41 20 4 21 40 22 1 23
REMARK SMILES IDX 39 24 38 25 22 27 23 28 29 29 24 30 27 31 26 32 25 33 28 34
REMARK SMILES IDX 30 35 31 36 32 37 36 38 33 39 35 40 34 41 37 42
REMARK H PARENT
REMARK Flexibility Score:   65.900
ROOT
ATOM      1  C   UNL     1      32.293   9.332  -3.111  1.00  0.00     0.089 A
ATOM      2  C   UNL     1      33.182   8.438  -2.545  1.00  0.00     0.140 A
ATOM      3  N   UNL     1      34.319   8.834  -1.913  1.00  0.00    -0.252 NA
ATOM      4  C   UNL     1      34.562  10.163  -1.877  1.00  0.00     0.089 A
ATOM      5  C   UNL     1      35.717  10.643  -1.272  1.00  0.00     0.030 A
ATOM      6  C   UNL     1      36.008  12.007  -1.236  1.00  0.00     0.003 A
ATOM      7  C   UNL     1      35.131  12.918  -1.817  1.00  0.00     0.011 A
ATOM      8  C   UNL     1      33.954  12.467  -2.430  1.00  0.00     0.010 A
ATOM      9  C   UNL     1      33.666  11.091  -2.455  1.00  0.00     0.097 A
ATOM     10  N   UNL     1      32.539  10.661  -3.048  1.00  0.00    -0.244 NA
ENDROOT
BRANCH   1  11
ATOM     11  C   UNL     1      31.084   8.992  -3.867  1.00  0.00     0.002 A
ATOM     12  C   UNL     1      29.040   8.506  -5.764  1.00  0.00     0.037 A
ATOM     13  C   UNL     1      29.798   7.452  -5.244  1.00  0.00     0.026 A
ATOM     14  C   UNL     1      29.222   9.784  -5.230  1.00  0.00     0.026 A
ATOM     15  C   UNL     1      30.813   7.689  -4.306  1.00  0.00     0.012 A
ATOM     16  C   UNL     1      30.235  10.024  -4.304  1.00  0.00     0.012 A
BRANCH  12  17
ATOM     17  N   UNL     1      28.207   8.278  -6.865  1.00  0.00    -0.366 N
ATOM     18  N   UNL     1      26.893   6.990  -9.186  1.00  0.00    -0.303 NA
ATOM     19  C   UNL     1      27.998   7.961  -9.330  1.00  0.00     0.105 C
ATOM     20  C   UNL     1      26.163   7.294  -7.934  1.00  0.00     0.109 C
ATOM     21  C   UNL     1      28.950   8.071  -8.119  1.00  0.00     0.132 C
ATOM     22  C   UNL     1      27.030   7.385  -6.637  1.00  0.00     0.096 C
ATOM     23  C   UNL     1      27.373   5.611  -9.210  1.00  0.00     0.105 C
BRANCH  22  24
ATOM     24  C   UNL     1      26.154   7.904  -5.463  1.00  0.00     0.026 C
BRANCH  24  25
ATOM     25  C   UNL     1      25.569   6.809  -4.560  1.00  0.00     0.004 C
ATOM     26  G   UNL     1      26.358   5.490  -4.619  1.00  0.00     0.000 C
ENDBRANCH  24  25
ENDBRANCH  22  24
ENDBRANCH  12  17
ENDBRANCH   1  11
BRANCH   8  27
ATOM     27  C   UNL     1      33.023  13.420  -3.063  1.00  0.00    -0.010 A
ATOM     28  C   UNL     1      32.966  13.547  -4.458  1.00  0.00     0.048 A
ATOM     29  C   UNL     1      32.241  14.290  -2.288  1.00  0.00     0.048 A
ATOM     30  C   UNL     1      32.171  14.529  -5.049  1.00  0.00     0.131 A
ATOM     31  C   UNL     1      31.452  15.267  -2.900  1.00  0.00     0.131 A
ATOM     32  C   UNL     1      31.406  15.411  -4.285  1.00  0.00     0.038 A
ATOM     33  F   UNL     1      32.143  14.604  -6.388  1.00  0.00    -0.207 F
ATOM     34  F   UNL     1      30.725  16.082  -2.120  1.00  0.00    -0.207 F
BRANCH  32  35
ATOM     35  C   UNL     1      30.557  16.463  -4.943  1.00  0.00     0.126 C
BRANCH  35  36
ATOM     36  N   UNL     1      29.115  16.155  -4.911  1.00  0.00    -0.291 NA
ATOM     37  C   UNL     1      28.336  17.361  -5.266  1.00  0.00     0.113 C
ATOM     38  C   UNL     1      28.741  14.993  -5.768  1.00  0.00     0.083 C
ATOM     39  C   UNL     1      26.871  17.036  -5.595  1.00  0.00     0.175 C
ATOM     40  C   UNL     1      27.926  15.429  -7.012  1.00  0.00     0.179 C
ATOM     41  O   UNL     1      26.713  16.111  -6.679  1.00  0.00    -0.378 OA
BRANCH  38  42
ATOM     42  C   UNL     1      27.980  13.980  -4.875  1.00  0.00     0.021 C
ATOM     43  G   UNL     1      27.289  12.855  -5.664  1.00  0.00     0.000 C
ENDBRANCH  38  42
ENDBRANCH  35  36
ENDBRANCH  32  35
ENDBRANCH   8  27
TORSDOF 0
ENDMDL
MODEL 2
REMARK VINA RESULT:     -10.9      1.551      2.318
REMARK SMILES CN1CCN2c3ccc(cc3)-c3cnc4cccc(c4n3)-c3cc(F)c(c(F)c3)CN3CCOC[C@@H]3CCC[C@H]2C1
REMARK SMILES IDX 12 1 13 2 14 3 15 4 16 5 17 6 18 7 19 8 20 9 21 10 9 11 6 12
REMARK SMILES IDX 7 13 11 14 8 15 10 16 5 17 2 18 3 19 41 20 4 21 40 22 1 23
REMARK SMILES IDX 39 24 38 25 22 27 23 28 29 29 24 30 27 31 26 32 25 33 28 34
REMARK SMILES IDX 30 35 31 36 32 37 36 38 33 39 35 40 34 41 37 42
REMARK H PARENT
REMARK Flexibility Score:   65.900
ROOT
ATOM      1  C   UNL     1      32.376   9.349  -3.091  1.00  0.00     0.089 A
ATOM      2  C   UNL     1      33.340   8.515  -2.556  1.00  0.00     0.140 A
ATOM      3  N   UNL     1      34.470   8.985  -1.964  1.00  0.00    -0.252 NA
ATOM      4  C   UNL     1      34.628  10.326  -1.936  1.00  0.00     0.089 A
ATOM      5  C   UNL     1      35.771  10.880  -1.371  1.00  0.00     0.030 A
ATOM      6  C   UNL     1      35.975  12.261  -1.345  1.00  0.00     0.003 A
ATOM      7  C   UNL     1      35.022  13.112  -1.896  1.00  0.00     0.011 A
ATOM      8  C   UNL     1      33.856  12.585  -2.468  1.00  0.00     0.010 A
ATOM      9  C   UNL     1      33.656  11.194  -2.483  1.00  0.00     0.097 A
ATOM     10  N   UNL     1      32.539  10.691  -3.037  1.00  0.00    -0.244 NA
ENDROOT
BRANCH   1  11
ATOM     11  C   UNL     1      31.167   8.931  -3.805  1.00  0.00     0.002 A
ATOM     12  C   UNL     1      29.091   8.317  -5.630  1.00  0.00     0.037 A
ATOM     13  C   UNL     1      29.939   7.314  -5.148  1.00  0.00     0.026 A
ATOM     14  C   UNL     1      29.204   9.600  -5.090  1.00  0.00     0.026 A
ATOM     15  C   UNL     1      30.970   7.615  -4.246  1.00  0.00     0.012 A
ATOM     16  C   UNL     1      30.232   9.904  -4.201  1.00  0.00     0.012 A
BRANCH  12  17
ATOM     17  N   UNL     1      28.235   8.039  -6.701  1.00  0.00    -0.366 N
ATOM     18  N   UNL     1      26.923   6.676  -8.979  1.00  0.00    -0.303 NA
ATOM     19  C   UNL     1      27.959   7.715  -9.159  1.00  0.00     0.105 C
ATOM     20  C   UNL     1      26.220   6.930  -7.701  1.00  0.00     0.109 C
ATOM     21  C   UNL     1      28.944   7.882  -7.982  1.00  0.00     0.132 C
ATOM     22  C   UNL     1      27.126   7.073  -6.436  1.00  0.00     0.096 C
ATOM     23  C   UNL     1      27.488   5.329  -9.026  1.00  0.00     0.105 C
BRANCH  22  24
ATOM     24  C   UNL     1      26.261   7.532  -5.229  1.00  0.00     0.026 C
BRANCH  24  25
ATOM     25  C   UNL     1      25.478   6.412  -4.530  1.00  0.00     0.004 C
ATOM     26  G   UNL     1      26.301   5.127  -4.338  1.00  0.00     0.000 C
ENDBRANCH  24  25
ENDBRANCH  22  24
ENDBRANCH  12  17
ENDBRANCH   1  11
BRANCH   8  27
ATOM     27  C   UNL     1      32.845  13.476  -3.068  1.00  0.00    -0.010 A
ATOM     28  C   UNL     1      32.644  13.499  -4.455  1.00  0.00     0.048 A
ATOM     29  C   UNL     1      32.126  14.389  -2.282  1.00  0.00     0.048 A
ATOM     30  C   UNL     1      31.771  14.423  -5.030  1.00  0.00     0.131 A
ATOM     31  C   UNL     1      31.258  15.307  -2.877  1.00  0.00     0.131 A
ATOM     32  C   UNL     1      31.069  15.348  -4.257  1.00  0.00     0.038 A
ATOM     33  F   UNL     1      31.606  14.399  -6.362  1.00  0.00    -0.207 F
ATOM     34  F   UNL     1      30.596  16.165  -2.087  1.00  0.00    -0.207 F
BRANCH  32  35
ATOM     35  C   UNL     1      30.134  16.335  -4.899  1.00  0.00     0.126 C
BRANCH  35  36
ATOM     36  N   UNL     1      30.831  17.450  -5.567  1.00  0.00    -0.291 NA
ATOM     37  C   UNL     1      29.847  18.456  -6.023  1.00  0.00     0.113 C
ATOM     38  C   UNL     1      31.894  18.071  -4.727  1.00  0.00     0.083 C
ATOM     39  C   UNL     1      30.507  19.789  -6.406  1.00  0.00     0.175 C
ATOM     40  C   UNL     1      31.505  19.494  -4.256  1.00  0.00     0.179 C
ATOM     41  O   UNL     1      31.250  20.395  -5.339  1.00  0.00    -0.378 OA
BRANCH  38  42
ATOM     42  C   UNL     1      33.211  18.046  -5.545  1.00  0.00     0.021 C
ATOM     43  G   UNL     1      33.092  17.306  -6.888  1.00  0.00     0.000 C
ENDBRANCH  38  42
ENDBRANCH  35  36
ENDBRANCH  32  35
ENDBRANCH   8  27
TORSDOF 0
ENDMDL
MODEL 3
REMARK VINA RESULT:     -10.6      0.954      1.028
REMARK SMILES CN1CCN2c3ccc(cc3)-c3cnc4cccc(c4n3)-c3cc(F)c(c(F)c3)CN3CCOC[C@@H]3CCC[C@H]2C1
REMARK SMILES IDX 12 1 13 2 14 3 15 4 16 5 17 6 18 7 19 8 20 9 21 10 9 11 6 12
REMARK SMILES IDX 7 13 11 14 8 15 10 16 5 17 2 18 3 19 41 20 4 21 40 22 1 23
REMARK SMILES IDX 39 24 38 25 22 27 23 28 29 29 24 30 27 31 26 32 25 33 28 34
REMARK SMILES IDX 30 35 31 36 32 37 36 38 33 39 35 40 34 41 37 42
REMARK H PARENT
REMARK Flexibility Score:   65.900
ROOT
ATOM      1  C   UNL     1      32.259   9.226  -3.045  1.00  0.00     0.089 A
ATOM      2  C   UNL     1      33.062   8.352  -2.336  1.00  0.00     0.140 A
ATOM      3  N   UNL     1      34.193   8.751  -1.695  1.00  0.00    -0.252 NA
ATOM      4  C   UNL     1      34.520  10.058  -1.797  1.00  0.00     0.089 A
ATOM      5  C   UNL     1      35.676  10.535  -1.192  1.00  0.00     0.030 A
ATOM      6  C   UNL     1      36.054  11.875  -1.295  1.00  0.00     0.003 A
ATOM      7  C   UNL     1      35.264  12.762  -2.020  1.00  0.00     0.011 A
ATOM      8  C   UNL     1      34.089  12.314  -2.638  1.00  0.00     0.010 A
ATOM      9  C   UNL     1      33.713  10.964  -2.522  1.00  0.00     0.097 A
ATOM     10  N   UNL     1      32.589  10.536  -3.120  1.00  0.00    -0.244 NA
ENDROOT
BRANCH   1  11
ATOM     11  C   UNL     1      31.066   8.872  -3.818  1.00  0.00     0.002 A
ATOM     12  C   UNL     1      29.048   8.383  -5.743  1.00  0.00     0.037 A
ATOM     13  C   UNL     1      29.834   7.336  -5.249  1.00  0.00     0.026 A
ATOM     14  C   UNL     1      29.189   9.649  -5.170  1.00  0.00     0.026 A
ATOM     15  C   UNL     1      30.836   7.575  -4.298  1.00  0.00     0.012 A
ATOM     16  C   UNL     1      30.189   9.891  -4.231  1.00  0.00     0.012 A
BRANCH  12  17
ATOM     17  N   UNL     1      28.229   8.163  -6.855  1.00  0.00    -0.366 N
ATOM     18  N   UNL     1      26.937   6.889  -9.196  1.00  0.00    -0.303 NA
ATOM     19  C   UNL     1      28.053   7.850  -9.324  1.00  0.00     0.105 C
ATOM     20  C   UNL     1      26.192   7.198  -7.955  1.00  0.00     0.109 C
ATOM     21  C   UNL     1      28.988   7.950  -8.099  1.00  0.00     0.132 C
ATOM     22  C   UNL     1      27.041   7.281  -6.646  1.00  0.00     0.096 C
ATOM     23  C   UNL     1      27.405   5.505  -9.214  1.00  0.00     0.105 C
BRANCH  22  24
ATOM     24  C   UNL     1      26.153   7.806  -5.484  1.00  0.00     0.026 C
BRANCH  24  25
ATOM     25  C   UNL     1      25.612   6.721  -4.541  1.00  0.00     0.004 C
ATOM     26  G   UNL     1      26.425   5.417  -4.591  1.00  0.00     0.000 C
ENDBRANCH  24  25
ENDBRANCH  22  24
ENDBRANCH  12  17
ENDBRANCH   1  11
BRANCH   8  27
ATOM     27  C   UNL     1      33.251  13.241  -3.422  1.00  0.00    -0.010 A
ATOM     28  C   UNL     1      32.335  12.755  -4.366  1.00  0.00     0.048 A
ATOM     29  C   UNL     1      33.414  14.630  -3.315  1.00  0.00     0.048 A
ATOM     30  C   UNL     1      31.629  13.634  -5.187  1.00  0.00     0.131 A
ATOM     31  C   UNL     1      32.697  15.494  -4.147  1.00  0.00     0.131 A
ATOM     32  C   UNL     1      31.800  15.017  -5.100  1.00  0.00     0.038 A
ATOM     33  F   UNL     1      30.757  13.121  -6.068  1.00  0.00    -0.207 F
ATOM     34  F   UNL     1      32.889  16.815  -4.013  1.00  0.00    -0.207 F
BRANCH  32  35
ATOM     35  C   UNL     1      31.029  15.946  -5.996  1.00  0.00     0.126 C
BRANCH  35  36
ATOM     36  N   UNL     1      29.666  16.229  -5.510  1.00  0.00    -0.291 NA
ATOM     37  C   UNL     1      29.591  17.618  -5.007  1.00  0.00     0.113 C
ATOM     38  C   UNL     1      28.609  15.960  -6.526  1.00  0.00     0.083 C
ATOM     39  C   UNL     1      28.144  18.094  -4.816  1.00  0.00     0.175 C
ATOM     40  C   UNL     1      27.960  17.267  -7.048  1.00  0.00     0.179 C
ATOM     41  O   UNL     1      27.355  18.047  -6.013  1.00  0.00    -0.378 OA
BRANCH  38  42
ATOM     42  C   UNL     1      27.581  14.992  -5.886  1.00  0.00     0.021 C
ATOM     43  G   UNL     1      28.114  14.252  -4.648  1.00  0.00     0.000 C
ENDBRANCH  38  42
ENDBRANCH  35  36
ENDBRANCH  32  35
ENDBRANCH   8  27
TORSDOF 0
ENDMDL
MODEL 4
REMARK VINA RESULT:     -10.5      0.614      1.285
REMARK SMILES CN1CCN2c3ccc(cc3)-c3cnc4cccc(c4n3)-c3cc(F)c(c(F)c3)CN3CCOC[C@@H]3CCC[C@H]2C1
REMARK SMILES IDX 12 1 13 2 14 3 15 4 16 5 17 6 18 7 19 8 20 9 21 10 9 11 6 12
REMARK SMILES IDX 7 13 11 14 8 15 10 16 5 17 2 18 3 19 41 20 4 21 40 22 1 23
REMARK SMILES IDX 39 24 38 25 22 27 23 28 29 29 24 30 27 31 26 32 25 33 28 34
REMARK SMILES IDX 30 35 31 36 32 37 36 38 33 39 35 40 34 41 37 42
REMARK H PARENT
REMARK Flexibility Score:   65.900
ROOT
ATOM      1  C   UNL     1      32.223   9.333  -3.090  1.00  0.00     0.089 A
ATOM      2  C   UNL     1      33.001   8.436  -2.382  1.00  0.00     0.140 A
ATOM      3  N   UNL     1      34.128   8.807  -1.718  1.00  0.00    -0.252 NA
ATOM      4  C   UNL     1      34.478  10.110  -1.797  1.00  0.00     0.089 A
ATOM      5  C   UNL     1      35.632  10.559  -1.167  1.00  0.00     0.030 A
ATOM      6  C   UNL     1      36.032  11.894  -1.245  1.00  0.00     0.003 A
ATOM      7  C   UNL     1      35.268  12.804  -1.969  1.00  0.00     0.011 A
ATOM      8  C   UNL     1      34.095  12.384  -2.611  1.00  0.00     0.010 A
ATOM      9  C   UNL     1      33.696  11.040  -2.520  1.00  0.00     0.097 A
ATOM     10  N   UNL     1      32.574  10.638  -3.141  1.00  0.00    -0.244 NA
ENDROOT
BRANCH   1  11
ATOM     11  C   UNL     1      31.036   9.010  -3.886  1.00  0.00     0.002 A
ATOM     12  C   UNL     1      29.050   8.556  -5.852  1.00  0.00     0.037 A
ATOM     13  C   UNL     1      29.775   7.490  -5.309  1.00  0.00     0.026 A
ATOM     14  C   UNL     1      29.231   9.829  -5.309  1.00  0.00     0.026 A
ATOM     15  C   UNL     1      30.761   7.712  -4.337  1.00  0.00     0.012 A
ATOM     16  C   UNL     1      30.215  10.054  -4.349  1.00  0.00     0.012 A
BRANCH  12  17
ATOM     17  N   UNL     1      28.251   8.341  -6.980  1.00  0.00    -0.366 N
ATOM     18  N   UNL     1      26.988   7.069  -9.338  1.00  0.00    -0.303 NA
ATOM     19  C   UNL     1      28.123   8.009  -9.449  1.00  0.00     0.105 C
ATOM     20  C   UNL     1      26.221   7.403  -8.116  1.00  0.00     0.109 C
ATOM     21  C   UNL     1      29.033   8.103  -8.205  1.00  0.00     0.132 C
ATOM     22  C   UNL     1      27.043   7.482  -6.789  1.00  0.00     0.096 C
ATOM     23  C   UNL     1      27.431   5.677  -9.334  1.00  0.00     0.105 C
BRANCH  22  24
ATOM     24  C   UNL     1      26.139   8.033  -5.652  1.00  0.00     0.026 C
BRANCH  24  25
ATOM     25  C   UNL     1      25.710   6.995  -4.606  1.00  0.00     0.004 C
ATOM     26  G   UNL     1      26.380   5.624  -4.802  1.00  0.00     0.000 C
ENDBRANCH  24  25
ENDBRANCH  22  24
ENDBRANCH  12  17
ENDBRANCH   1  11
BRANCH   8  27
ATOM     27  C   UNL     1      33.285  13.336  -3.394  1.00  0.00    -0.010 A
ATOM     28  C   UNL     1      33.060  14.638  -2.926  1.00  0.00     0.048 A
ATOM     29  C   UNL     1      32.641  12.938  -4.575  1.00  0.00     0.048 A
ATOM     30  C   UNL     1      32.199  15.498  -3.609  1.00  0.00     0.131 A
ATOM     31  C   UNL     1      31.783  13.814  -5.244  1.00  0.00     0.131 A
ATOM     32  C   UNL     1      31.540  15.103  -4.774  1.00  0.00     0.038 A
ATOM     33  F   UNL     1      32.024  16.738  -3.128  1.00  0.00    -0.207 F
ATOM     34  F   UNL     1      31.184  13.389  -6.366  1.00  0.00    -0.207 F
BRANCH  32  35
ATOM     35  C   UNL     1      30.616  16.046  -5.493  1.00  0.00     0.126 C
BRANCH  35  36
ATOM     36  N   UNL     1      29.193  15.680  -5.367  1.00  0.00    -0.291 NA
ATOM     37  C   UNL     1      28.427  16.823  -4.824  1.00  0.00     0.113 C
ATOM     38  C   UNL     1      28.597  15.181  -6.639  1.00  0.00     0.083 C
ATOM     39  C   UNL     1      26.911  16.646  -4.993  1.00  0.00     0.175 C
ATOM     40  C   UNL     1      27.582  16.187  -7.238  1.00  0.00     0.179 C
ATOM     41  O   UNL     1      26.495  16.483  -6.356  1.00  0.00    -0.378 OA
BRANCH  38  42
ATOM     42  C   UNL     1      27.969  13.794  -6.348  1.00  0.00     0.021 C
ATOM     43  G   UNL     1      28.208  13.295  -4.913  1.00  0.00     0.000 C
ENDBRANCH  38  42
ENDBRANCH  35  36
ENDBRANCH  32  35
ENDBRANCH   8  27
TORSDOF 0
ENDMDL
MODEL 5
REMARK VINA RESULT:     -10.1      0.682      1.816
REMARK SMILES CN1CCN2c3ccc(cc3)-c3cnc4cccc(c4n3)-c3cc(F)c(c(F)c3)CN3CCOC[C@@H]3CCC[C@H]2C1
REMARK SMILES IDX 12 1 13 2 14 3 15 4 16 5 17 6 18 7 19 8 20 9 21 10 9 11 6 12
REMARK SMILES IDX 7 13 11 14 8 15 10 16 5 17 2 18 3 19 41 20 4 21 40 22 1 23
REMARK SMILES IDX 39 24 38 25 22 27 23 28 29 29 24 30 27 31 26 32 25 33 28 34
REMARK SMILES IDX 30 35 31 36 32 37 36 38 33 39 35 40 34 41 37 42
REMARK H PARENT
REMARK Flexibility Score:   65.900
ROOT
ATOM      1  C   UNL     1      32.250   9.335  -3.169  1.00  0.00     0.089 A
ATOM      2  C   UNL     1      33.141   8.439  -2.607  1.00  0.00     0.140 A
ATOM      3  N   UNL     1      34.277   8.835  -1.973  1.00  0.00    -0.252 NA
ATOM      4  C   UNL     1      34.518  10.164  -1.931  1.00  0.00     0.089 A
ATOM      5  C   UNL     1      35.672  10.642  -1.323  1.00  0.00     0.030 A
ATOM      6  C   UNL     1      35.962  12.007  -1.281  1.00  0.00     0.003 A
ATOM      7  C   UNL     1      35.083  12.918  -1.858  1.00  0.00     0.011 A
ATOM      8  C   UNL     1      33.907  12.469  -2.473  1.00  0.00     0.010 A
ATOM      9  C   UNL     1      33.621  11.093  -2.505  1.00  0.00     0.097 A
ATOM     10  N   UNL     1      32.495  10.664  -3.100  1.00  0.00    -0.244 NA
ENDROOT
BRANCH   1  11
ATOM     11  C   UNL     1      31.042   8.996  -3.926  1.00  0.00     0.002 A
ATOM     12  C   UNL     1      29.005   8.501  -5.828  1.00  0.00     0.037 A
ATOM     13  C   UNL     1      29.743   7.446  -5.280  1.00  0.00     0.026 A
ATOM     14  C   UNL     1      29.202   9.786  -5.321  1.00  0.00     0.026 A
ATOM     15  C   UNL     1      30.754   7.688  -4.340  1.00  0.00     0.012 A
ATOM     16  C   UNL     1      30.212  10.031  -4.392  1.00  0.00     0.012 A
BRANCH  12  17
ATOM     17  N   UNL     1      28.177   8.261  -6.930  1.00  0.00    -0.366 N
ATOM     18  N   UNL     1      26.867   6.946  -9.238  1.00  0.00    -0.303 NA
ATOM     19  C   UNL     1      27.980   7.906  -9.392  1.00  0.00     0.105 C
ATOM     20  C   UNL     1      26.131   7.276  -7.996  1.00  0.00     0.109 C
ATOM     21  C   UNL     1      28.925   8.027  -8.176  1.00  0.00     0.132 C
ATOM     22  C   UNL     1      26.991   7.382  -6.696  1.00  0.00     0.096 C
ATOM     23  C   UNL     1      27.336   5.562  -9.237  1.00  0.00     0.105 C
BRANCH  22  24
ATOM     24  C   UNL     1      26.112   7.927  -5.536  1.00  0.00     0.026 C
BRANCH  24  25
ATOM     25  C   UNL     1      26.022   7.010  -4.307  1.00  0.00     0.004 C
ATOM     26  G   UNL     1      26.019   5.515  -4.666  1.00  0.00     0.000 C
ENDBRANCH  24  25
ENDBRANCH  22  24
ENDBRANCH  12  17
ENDBRANCH   1  11
BRANCH   8  27
ATOM     27  C   UNL     1      32.975  13.424  -3.102  1.00  0.00    -0.010 A
ATOM     28  C   UNL     1      32.137  14.229  -2.318  1.00  0.00     0.048 A
ATOM     29  C   UNL     1      32.834  13.486  -4.496  1.00  0.00     0.048 A
ATOM     30  C   UNL     1      31.177  15.046  -2.915  1.00  0.00     0.131 A
ATOM     31  C   UNL     1      31.866  14.310  -5.075  1.00  0.00     0.131 A
ATOM     32  C   UNL     1      31.017  15.098  -4.300  1.00  0.00     0.038 A
ATOM     33  F   UNL     1      30.405  15.805  -2.122  1.00  0.00    -0.207 F
ATOM     34  F   UNL     1      31.762  14.333  -6.412  1.00  0.00    -0.207 F
BRANCH  32  35
ATOM     35  C   UNL     1      29.974  15.985  -4.921  1.00  0.00     0.126 C
BRANCH  35  36
ATOM     36  N   UNL     1      28.895  15.237  -5.593  1.00  0.00    -0.291 NA
ATOM     37  C   UNL     1      28.781  13.885  -5.006  1.00  0.00     0.113 C
ATOM     38  C   UNL     1      27.585  15.949  -5.579  1.00  0.00     0.083 C
ATOM     39  C   UNL     1      27.473  13.183  -5.401  1.00  0.00     0.175 C
ATOM     40  C   UNL     1      26.558  15.256  -4.649  1.00  0.00     0.179 C
ATOM     41  O   UNL     1      26.292  13.899  -5.016  1.00  0.00    -0.378 OA
BRANCH  38  42
ATOM     42  C   UNL     1      27.094  16.053  -7.046  1.00  0.00     0.021 C
ATOM     43  G   UNL     1      28.202  15.828  -8.088  1.00  0.00     0.000 C
ENDBRANCH  38  42
ENDBRANCH  35  36
ENDBRANCH  32  35
ENDBRANCH   8  27
TORSDOF 0
ENDMDL
MODEL 6
REMARK VINA RESULT:     -10.0      1.042      1.445
REMARK SMILES CN1CCN2c3ccc(cc3)-c3cnc4cccc(c4n3)-c3cc(F)c(c(F)c3)CN3CCOC[C@@H]3CCC[C@H]2C1
REMARK SMILES IDX 12 1 13 2 14 3 15 4 16 5 17 6 18 7 19 8 20 9 21 10 9 11 6 12
REMARK SMILES IDX 7 13 11 14 8 15 10 16 5 17 2 18 3 19 41 20 4 21 40 22 1 23
REMARK SMILES IDX 39 24 38 25 22 27 23 28 29 29 24 30 27 31 26 32 25 33 28 34
REMARK SMILES IDX 30 35 31 36 32 37 36 38 33 39 35 40 34 41 37 42
REMARK H PARENT
REMARK Flexibility Score:   65.900
ROOT
ATOM      1  C   UNL     1      32.220   9.373  -3.181  1.00  0.00     0.089 A
ATOM      2  C   UNL     1      33.090   8.450  -2.631  1.00  0.00     0.140 A
ATOM      3  N   UNL     1      34.234   8.812  -1.991  1.00  0.00    -0.252 NA
ATOM      4  C   UNL     1      34.504  10.135  -1.932  1.00  0.00     0.089 A
ATOM      5  C   UNL     1      35.668  10.579  -1.317  1.00  0.00     0.030 A
ATOM      6  C   UNL     1      35.988  11.937  -1.256  1.00  0.00     0.003 A
ATOM      7  C   UNL     1      35.130  12.875  -1.822  1.00  0.00     0.011 A
ATOM      8  C   UNL     1      33.944  12.460  -2.443  1.00  0.00     0.010 A
ATOM      9  C   UNL     1      33.628  11.091  -2.493  1.00  0.00     0.097 A
ATOM     10  N   UNL     1      32.493  10.695  -3.094  1.00  0.00    -0.244 NA
ENDROOT
BRANCH   1  11
ATOM     11  C   UNL     1      31.005   9.071  -3.943  1.00  0.00     0.002 A
ATOM     12  C   UNL     1      28.955   8.655  -5.851  1.00  0.00     0.037 A
ATOM     13  C   UNL     1      29.681   7.576  -5.335  1.00  0.00     0.026 A
ATOM     14  C   UNL     1      29.171   9.923  -5.309  1.00  0.00     0.026 A
ATOM     15  C   UNL     1      30.699   7.779  -4.392  1.00  0.00     0.012 A
ATOM     16  C   UNL     1      30.186  10.129  -4.377  1.00  0.00     0.012 A
BRANCH  12  17
ATOM     17  N   UNL     1      28.120   8.457  -6.956  1.00  0.00    -0.366 N
ATOM     18  N   UNL     1      26.860   8.737  -9.622  1.00  0.00    -0.303 NA
ATOM     19  C   UNL     1      26.277   9.324  -8.397  1.00  0.00     0.105 C
ATOM     20  C   UNL     1      27.644   7.539  -9.242  1.00  0.00     0.109 C
ATOM     21  C   UNL     1      27.280   9.627  -7.263  1.00  0.00     0.132 C
ATOM     22  C   UNL     1      28.720   7.748  -8.128  1.00  0.00     0.096 C
ATOM     23  C   UNL     1      27.674   9.703 -10.356  1.00  0.00     0.105 C
BRANCH  22  24
ATOM     24  C   UNL     1      29.304   6.371  -7.707  1.00  0.00     0.026 C
BRANCH  24  25
ATOM     25  C   UNL     1      28.375   5.173  -7.948  1.00  0.00     0.004 C
ATOM     26  G   UNL     1      27.927   4.483  -6.649  1.00  0.00     0.000 C
ENDBRANCH  24  25
ENDBRANCH  22  24
ENDBRANCH  12  17
ENDBRANCH   1  11
BRANCH   8  27
ATOM     27  C   UNL     1      33.034  13.444  -3.059  1.00  0.00    -0.010 A
ATOM     28  C   UNL     1      32.992  13.607  -4.451  1.00  0.00     0.048 A
ATOM     29  C   UNL     1      32.257  14.305  -2.270  1.00  0.00     0.048 A
ATOM     30  C   UNL     1      32.217  14.616  -5.023  1.00  0.00     0.131 A
ATOM     31  C   UNL     1      31.489  15.309  -2.862  1.00  0.00     0.131 A
ATOM     32  C   UNL     1      31.458  15.490  -4.243  1.00  0.00     0.038 A
ATOM     33  F   UNL     1      32.203  14.727  -6.361  1.00  0.00    -0.207 F
ATOM     34  F   UNL     1      30.767  16.114  -2.068  1.00  0.00    -0.207 F
BRANCH  32  35
ATOM     35  C   UNL     1      30.632  16.571  -4.882  1.00  0.00     0.126 C
BRANCH  35  36
ATOM     36  N   UNL     1      29.185  16.286  -4.867  1.00  0.00    -0.291 NA
ATOM     37  C   UNL     1      28.431  17.498  -5.257  1.00  0.00     0.113 C
ATOM     38  C   UNL     1      28.805  15.115  -5.707  1.00  0.00     0.083 C
ATOM     39  C   UNL     1      26.966  17.190  -5.602  1.00  0.00     0.175 C
ATOM     40  C   UNL     1      28.016  15.539  -6.972  1.00  0.00     0.179 C
ATOM     41  O   UNL     1      26.809  16.247  -6.671  1.00  0.00    -0.378 OA
BRANCH  38  42
ATOM     42  C   UNL     1      28.014  14.131  -4.807  1.00  0.00     0.021 C
ATOM     43  G   UNL     1      27.269  13.037  -5.590  1.00  0.00     0.000 C
ENDBRANCH  38  42
ENDBRANCH  35  36
ENDBRANCH  32  35
ENDBRANCH   8  27
TORSDOF 0
ENDMDL
MODEL 7
REMARK VINA RESULT:     -10.0      0.515      1.154
REMARK SMILES CN1CCN2c3ccc(cc3)-c3cnc4cccc(c4n3)-c3cc(F)c(c(F)c3)CN3CCOC[C@@H]3CCC[C@H]2C1
REMARK SMILES IDX 12 1 13 2 14 3 15 4 16 5 17 6 18 7 19 8 20 9 21 10 9 11 6 12
REMARK SMILES IDX 7 13 11 14 8 15 10 16 5 17 2 18 3 19 41 20 4 21 40 22 1 23
REMARK SMILES IDX 39 24 38 25 22 27 23 28 29 29 24 30 27 31 26 32 25 33 28 34
REMARK SMILES IDX 30 35 31 36 32 37 36 38 33 39 35 40 34 41 37 42
REMARK H PARENT
REMARK Flexibility Score:   65.900
ROOT
ATOM      1  C   UNL     1      32.320   9.328  -3.107  1.00  0.00     0.089 A
ATOM      2  C   UNL     1      33.223   8.448  -2.540  1.00  0.00     0.140 A
ATOM      3  N   UNL     1      34.358   8.862  -1.916  1.00  0.00    -0.252 NA
ATOM      4  C   UNL     1      34.585  10.194  -1.892  1.00  0.00     0.089 A
ATOM      5  C   UNL     1      35.738  10.692  -1.296  1.00  0.00     0.030 A
ATOM      6  C   UNL     1      36.013  12.060  -1.271  1.00  0.00     0.003 A
ATOM      7  C   UNL     1      35.122  12.955  -1.854  1.00  0.00     0.011 A
ATOM      8  C   UNL     1      33.947  12.487  -2.457  1.00  0.00     0.010 A
ATOM      9  C   UNL     1      33.675  11.107  -2.471  1.00  0.00     0.097 A
ATOM     10  N   UNL     1      32.551  10.660  -3.055  1.00  0.00    -0.244 NA
ENDROOT
BRANCH   1  11
ATOM     11  C   UNL     1      31.111   8.968  -3.854  1.00  0.00     0.002 A
ATOM     12  C   UNL     1      29.059   8.455  -5.735  1.00  0.00     0.037 A
ATOM     13  C   UNL     1      29.845   7.412  -5.233  1.00  0.00     0.026 A
ATOM     14  C   UNL     1      29.219   9.731  -5.191  1.00  0.00     0.026 A
ATOM     15  C   UNL     1      30.864   7.663  -4.303  1.00  0.00     0.012 A
ATOM     16  C   UNL     1      30.235   9.984  -4.273  1.00  0.00     0.012 A
BRANCH  12  17
ATOM     17  N   UNL     1      28.220   8.218  -6.829  1.00  0.00    -0.366 N
ATOM     18  N   UNL     1      26.898   6.915  -9.138  1.00  0.00    -0.303 NA
ATOM     19  C   UNL     1      27.997   7.892  -9.293  1.00  0.00     0.105 C
ATOM     20  C   UNL     1      26.175   7.219  -7.882  1.00  0.00     0.109 C
ATOM     21  C   UNL     1      28.956   8.011  -8.088  1.00  0.00     0.132 C
ATOM     22  C   UNL     1      27.049   7.319  -6.592  1.00  0.00     0.096 C
ATOM     23  C   UNL     1      27.386   5.538  -9.160  1.00  0.00     0.105 C
BRANCH  22  24
ATOM     24  C   UNL     1      26.178   7.837  -5.414  1.00  0.00     0.026 C
BRANCH  24  25
ATOM     25  C   UNL     1      25.302   6.771  -4.740  1.00  0.00     0.004 C
ATOM     26  G   UNL     1      26.070   5.483  -4.399  1.00  0.00     0.000 C
ENDBRANCH  24  25
ENDBRANCH  22  24
ENDBRANCH  12  17
ENDBRANCH   1  11
BRANCH   8  27
ATOM     27  C   UNL     1      33.002  13.424  -3.092  1.00  0.00    -0.010 A
ATOM     28  C   UNL     1      32.912  13.515  -4.488  1.00  0.00     0.048 A
ATOM     29  C   UNL     1      32.239  14.315  -2.322  1.00  0.00     0.048 A
ATOM     30  C   UNL     1      32.103  14.482  -5.085  1.00  0.00     0.131 A
ATOM     31  C   UNL     1      31.436  15.277  -2.939  1.00  0.00     0.131 A
ATOM     32  C   UNL     1      31.357  15.385  -4.326  1.00  0.00     0.038 A
ATOM     33  F   UNL     1      32.042  14.523  -6.425  1.00  0.00    -0.207 F
ATOM     34  F   UNL     1      30.729  16.112  -2.163  1.00  0.00    -0.207 F
BRANCH  32  35
ATOM     35  C   UNL     1      30.493  16.420  -4.991  1.00  0.00     0.126 C
BRANCH  35  36
ATOM     36  N   UNL     1      29.262  15.862  -5.581  1.00  0.00    -0.291 NA
ATOM     37  C   UNL     1      28.720  14.802  -4.704  1.00  0.00     0.113 C
ATOM     38  C   UNL     1      28.231  16.896  -5.884  1.00  0.00     0.083 C
ATOM     39  C   UNL     1      27.276  14.424  -5.064  1.00  0.00     0.175 C
ATOM     40  C   UNL     1      27.010  16.794  -4.936  1.00  0.00     0.179 C
ATOM     41  O   UNL     1      26.356  15.523  -4.996  1.00  0.00    -0.378 OA
BRANCH  38  42
ATOM     42  C   UNL     1      27.847  16.749  -7.379  1.00  0.00     0.021 C
ATOM     43  G   UNL     1      28.426  15.490  -8.046  1.00  0.00     0.000 C
ENDBRANCH  38  42
ENDBRANCH  35  36
ENDBRANCH  32  35
ENDBRANCH   8  27
TORSDOF 0
ENDMDL
MODEL 8
REMARK VINA RESULT:     -10.0      1.739      2.939
REMARK SMILES CN1CCN2c3ccc(cc3)-c3cnc4cccc(c4n3)-c3cc(F)c(c(F)c3)CN3CCOC[C@@H]3CCC[C@H]2C1
REMARK SMILES IDX 12 1 13 2 14 3 15 4 16 5 17 6 18 7 19 8 20 9 21 10 9 11 6 12
REMARK SMILES IDX 7 13 11 14 8 15 10 16 5 17 2 18 3 19 41 20 4 21 40 22 1 23
REMARK SMILES IDX 39 24 38 25 22 27 23 28 29 29 24 30 27 31 26 32 25 33 28 34
REMARK SMILES IDX 30 35 31 36 32 37 36 38 33 39 35 40 34 41 37 42
REMARK H PARENT
REMARK Flexibility Score:   65.900
ROOT
ATOM      1  C   UNL     1      32.273   9.316  -3.149  1.00  0.00     0.089 A
ATOM      2  C   UNL     1      33.171   8.421  -2.599  1.00  0.00     0.140 A
ATOM      3  N   UNL     1      34.315   8.817  -1.979  1.00  0.00    -0.252 NA
ATOM      4  C   UNL     1      34.555  10.146  -1.938  1.00  0.00     0.089 A
ATOM      5  C   UNL     1      35.716  10.625  -1.345  1.00  0.00     0.030 A
ATOM      6  C   UNL     1      36.004  11.990  -1.304  1.00  0.00     0.003 A
ATOM      7  C   UNL     1      35.118  12.901  -1.869  1.00  0.00     0.011 A
ATOM      8  C   UNL     1      33.934  12.451  -2.470  1.00  0.00     0.010 A
ATOM      9  C   UNL     1      33.649  11.075  -2.500  1.00  0.00     0.097 A
ATOM     10  N   UNL     1      32.517  10.645  -3.082  1.00  0.00    -0.244 NA
ENDROOT
BRANCH   1  11
ATOM     11  C   UNL     1      31.056   8.977  -3.892  1.00  0.00     0.002 A
ATOM     12  C   UNL     1      28.987   8.506  -5.765  1.00  0.00     0.037 A
ATOM     13  C   UNL     1      29.763   7.449  -5.277  1.00  0.00     0.026 A
ATOM     14  C   UNL     1      29.164   9.775  -5.211  1.00  0.00     0.026 A
ATOM     15  C   UNL     1      30.791   7.680  -4.351  1.00  0.00     0.012 A
ATOM     16  C   UNL     1      30.189  10.008  -4.296  1.00  0.00     0.012 A
BRANCH  12  17
ATOM     17  N   UNL     1      28.138   8.289  -6.857  1.00  0.00    -0.366 N
ATOM     18  N   UNL     1      26.838   8.531  -9.507  1.00  0.00    -0.303 NA
ATOM     19  C   UNL     1      26.267   9.124  -8.279  1.00  0.00     0.105 C
ATOM     20  C   UNL     1      27.639   7.346  -9.126  1.00  0.00     0.109 C
ATOM     21  C   UNL     1      27.282   9.448  -7.162  1.00  0.00     0.132 C
ATOM     22  C   UNL     1      28.728   7.575  -8.030  1.00  0.00     0.096 C
ATOM     23  C   UNL     1      27.632   9.499 -10.261  1.00  0.00     0.105 C
BRANCH  22  24
ATOM     24  C   UNL     1      29.333   6.208  -7.605  1.00  0.00     0.026 C
BRANCH  24  25
ATOM     25  C   UNL     1      28.407   5.000  -7.808  1.00  0.00     0.004 C
ATOM     26  G   UNL     1      27.654   4.593  -6.530  1.00  0.00     0.000 C
ENDBRANCH  24  25
ENDBRANCH  22  24
ENDBRANCH  12  17
ENDBRANCH   1  11
BRANCH   8  27
ATOM     27  C   UNL     1      32.994  13.406  -3.086  1.00  0.00    -0.010 A
ATOM     28  C   UNL     1      32.396  14.417  -2.321  1.00  0.00     0.048 A
ATOM     29  C   UNL     1      32.599  13.271  -4.425  1.00  0.00     0.048 A
ATOM     30  C   UNL     1      31.421  15.245  -2.877  1.00  0.00     0.131 A
ATOM     31  C   UNL     1      31.620  14.110  -4.963  1.00  0.00     0.131 A
ATOM     32  C   UNL     1      31.009  15.104  -4.203  1.00  0.00     0.038 A
ATOM     33  F   UNL     1      30.886  16.205  -2.107  1.00  0.00    -0.207 F
ATOM     34  F   UNL     1      31.269  13.941  -6.247  1.00  0.00    -0.207 F
BRANCH  32  35
ATOM     35  C   UNL     1      29.954  16.007  -4.781  1.00  0.00     0.126 C
BRANCH  35  36
ATOM     36  N   UNL     1      30.497  17.026  -5.698  1.00  0.00    -0.291 NA
ATOM     37  C   UNL     1      29.619  18.216  -5.702  1.00  0.00     0.113 C
ATOM     38  C   UNL     1      31.911  17.395  -5.402  1.00  0.00     0.083 C
ATOM     39  C   UNL     1      30.290  19.438  -6.348  1.00  0.00     0.175 C
ATOM     40  C   UNL     1      32.029  18.829  -4.829  1.00  0.00     0.179 C
ATOM     41  O   UNL     1      31.513  19.831  -5.710  1.00  0.00    -0.378 OA
BRANCH  38  42
ATOM     42  C   UNL     1      32.728  17.198  -6.705  1.00  0.00     0.021 C
ATOM     43  G   UNL     1      34.133  17.822  -6.656  1.00  0.00     0.000 C
ENDBRANCH  38  42
ENDBRANCH  35  36
ENDBRANCH  32  35
ENDBRANCH   8  27
TORSDOF 0
ENDMDL
MODEL 9
REMARK VINA RESULT:     -10.0      1.770      2.814
REMARK SMILES CN1CCN2c3ccc(cc3)-c3cnc4cccc(c4n3)-c3cc(F)c(c(F)c3)CN3CCOC[C@@H]3CCC[C@H]2C1
REMARK SMILES IDX 12 1 13 2 14 3 15 4 16 5 17 6 18 7 19 8 20 9 21 10 9 11 6 12
REMARK SMILES IDX 7 13 11 14 8 15 10 16 5 17 2 18 3 19 41 20 4 21 40 22 1 23
REMARK SMILES IDX 39 24 38 25 22 27 23 28 29 29 24 30 27 31 26 32 25 33 28 34
REMARK SMILES IDX 30 35 31 36 32 37 36 38 33 39 35 40 34 41 37 42
REMARK H PARENT
REMARK Flexibility Score:   65.900
ROOT
ATOM      1  C   UNL     1      32.455   9.267  -3.118  1.00  0.00     0.089 A
ATOM      2  C   UNL     1      33.404   8.450  -2.533  1.00  0.00     0.140 A
ATOM      3  N   UNL     1      34.505   8.940  -1.902  1.00  0.00    -0.252 NA
ATOM      4  C   UNL     1      34.650  10.283  -1.888  1.00  0.00     0.089 A
ATOM      5  C   UNL     1      35.763  10.856  -1.286  1.00  0.00     0.030 A
ATOM      6  C   UNL     1      35.953  12.239  -1.271  1.00  0.00     0.003 A
ATOM      7  C   UNL     1      35.015  13.072  -1.872  1.00  0.00     0.011 A
ATOM      8  C   UNL     1      33.878  12.526  -2.483  1.00  0.00     0.010 A
ATOM      9  C   UNL     1      33.692  11.133  -2.486  1.00  0.00     0.097 A
ATOM     10  N   UNL     1      32.603  10.611  -3.077  1.00  0.00    -0.244 NA
ENDROOT
BRANCH   1  11
ATOM     11  C   UNL     1      31.279   8.826  -3.873  1.00  0.00     0.002 A
ATOM     12  C   UNL     1      29.332   8.048  -5.775  1.00  0.00     0.037 A
ATOM     13  C   UNL     1      30.007   7.090  -5.010  1.00  0.00     0.026 A
ATOM     14  C   UNL     1      29.541   9.398  -5.488  1.00  0.00     0.026 A
ATOM     15  C   UNL     1      30.974   7.473  -4.069  1.00  0.00     0.012 A
ATOM     16  C   UNL     1      30.507   9.781  -4.559  1.00  0.00     0.012 A
BRANCH  12  17
ATOM     17  N   UNL     1      28.556   7.636  -6.864  1.00  0.00    -0.366 N
ATOM     18  N   UNL     1      26.494   6.284  -8.504  1.00  0.00    -0.303 NA
ATOM     19  C   UNL     1      27.886   5.796  -8.408  1.00  0.00     0.105 C
ATOM     20  C   UNL     1      26.495   7.749  -8.289  1.00  0.00     0.109 C
ATOM     21  C   UNL     1      28.641   6.189  -7.120  1.00  0.00     0.132 C
ATOM     22  C   UNL     1      27.199   8.252  -6.988  1.00  0.00     0.096 C
ATOM     23  C   UNL     1      25.610   5.601  -7.563  1.00  0.00     0.105 C
BRANCH  22  24
ATOM     24  C   UNL     1      27.290   9.803  -7.014  1.00  0.00     0.026 C
BRANCH  24  25
ATOM     25  C   UNL     1      26.669  10.467  -8.251  1.00  0.00     0.004 C
ATOM     26  G   UNL     1      26.562  11.996  -8.129  1.00  0.00     0.000 C
ENDBRANCH  24  25
ENDBRANCH  22  24
ENDBRANCH  12  17
ENDBRANCH   1  11
BRANCH   8  27
ATOM     27  C   UNL     1      32.883  13.398  -3.136  1.00  0.00    -0.010 A
ATOM     28  C   UNL     1      32.761  13.423  -4.532  1.00  0.00     0.048 A
ATOM     29  C   UNL     1      32.102  14.292  -2.388  1.00  0.00     0.048 A
ATOM     30  C   UNL     1      31.902  14.331  -5.152  1.00  0.00     0.131 A
ATOM     31  C   UNL     1      31.249  15.194  -3.028  1.00  0.00     0.131 A
ATOM     32  C   UNL     1      31.137  15.237  -4.416  1.00  0.00     0.038 A
ATOM     33  F   UNL     1      31.813  14.311  -6.491  1.00  0.00    -0.207 F
ATOM     34  F   UNL     1      30.526  16.034  -2.274  1.00  0.00    -0.207 F
BRANCH  32  35
ATOM     35  C   UNL     1      30.220  16.208  -5.106  1.00  0.00     0.126 C
BRANCH  35  36
ATOM     36  N   UNL     1      30.925  17.361  -5.697  1.00  0.00    -0.291 NA
ATOM     37  C   UNL     1      29.946  18.383  -6.124  1.00  0.00     0.113 C
ATOM     38  C   UNL     1      31.962  17.943  -4.797  1.00  0.00     0.083 C
ATOM     39  C   UNL     1      30.605  19.739  -6.418  1.00  0.00     0.175 C
ATOM     40  C   UNL     1      31.550  19.337  -4.262  1.00  0.00     0.179 C
ATOM     41  O   UNL     1      31.316  20.292  -5.302  1.00  0.00    -0.378 OA
BRANCH  38  42
ATOM     42  C   UNL     1      33.299  17.970  -5.581  1.00  0.00     0.021 C
ATOM     43  G   UNL     1      33.253  17.199  -6.911  1.00  0.00     0.000 C
ENDBRANCH  38  42
ENDBRANCH  35  36
ENDBRANCH  32  35
ENDBRANCH   8  27
TORSDOF 0
ENDMDL
