MODEL 1
REMARK VINA RESULT:      -8.3      0.000      0.000
REMARK SMILES O=C1Nc2c[nH]nc2-c2nc3ccc(cc3[nH]2)CN2CCOC[C@H]2CNCOCCC2(CC2)N1
REMARK SMILES IDX 19 1 20 2 21 3 22 4 23 5 24 6 18 7 14 8 9 9 10 10 17 11
REMARK SMILES IDX 11 12 16 13 12 14 15 15 13 16 8 18 4 19 5 20 6 21 7 22 3 24
REMARK SMILES IDX 1 25 2 26 34 27 31 30 32 31 33 32 25 34 26 35 27 37 28 38
REMARK SMILES IDX 29 39 30 40
REMARK H PARENT 17 17 6 23 3 28 34 29 26 36
REMARK Flexibility Score:  190.900
ROOT
ATOM      1  N   UNL     1      31.421  18.863  -5.602  1.00  0.00    -0.290 NA
ATOM      2  C   UNL     1      32.502  19.478  -6.401  1.00  0.00     0.113 C
ATOM      3  C   UNL     1      33.074  20.767  -5.795  1.00  0.00     0.175 C
ATOM      4  O   UNL     1      32.041  21.737  -5.592  1.00  0.00    -0.378 OA
ATOM      5  C   UNL     1      31.026  21.220  -4.722  1.00  0.00     0.180 C
ATOM      6  C   UNL     1      30.405  19.902  -5.255  1.00  0.00     0.096 C
ENDROOT
BRANCH   1   7
ATOM      7  C   UNL     1      31.955  18.183  -4.405  1.00  0.00     0.120 C
BRANCH   7   8
ATOM      8  C   UNL     1      32.119  16.687  -4.616  1.00  0.00    -0.032 A
ATOM      9  C   UNL     1      32.949  12.311  -3.675  1.00  0.00     0.161 A
ATOM     10  N   UNL     1      32.432  12.540  -4.874  1.00  0.00    -0.227 NA
ATOM     11  N   UNL     1      33.212  13.496  -3.051  1.00  0.00    -0.337 N
ATOM     12  C   UNL     1      32.258  13.899  -4.957  1.00  0.00     0.089 A
ATOM     13  C   UNL     1      32.781  14.527  -3.838  1.00  0.00     0.066 A
ATOM     14  C   UNL     1      31.650  14.680  -5.948  1.00  0.00     0.031 A
ATOM     15  C   UNL     1      32.784  15.908  -3.652  1.00  0.00     0.033 A
ATOM     16  C   UNL     1      31.562  16.068  -5.750  1.00  0.00     0.007 A
ATOM     17  H   UNL     1      33.639  13.590  -2.140  1.00  0.00     0.168 HD
BRANCH   9  18
ATOM     18  C   UNL     1      33.220  10.865  -3.087  1.00  0.00     0.151 A
ATOM     19  C   UNL     1      32.509   9.618  -3.183  1.00  0.00     0.092 A
ATOM     20  C   UNL     1      33.280   8.740  -2.441  1.00  0.00     0.132 A
ATOM     21  N   UNL     1      34.350   9.440  -1.987  1.00  0.00    -0.283 N
ATOM     22  N   UNL     1      34.360  10.707  -2.387  1.00  0.00    -0.170 NA
ATOM     23  H   UNL     1      35.124   9.114  -1.416  1.00  0.00     0.189 HD
BRANCH  19  24
ATOM     24  N   UNL     1      31.407   9.101  -3.852  1.00  0.00    -0.304 N
ATOM     25  O   UNL     1      29.650  10.512  -3.352  1.00  0.00    -0.248 OA
ATOM     26  C   UNL     1      30.166   9.644  -4.043  1.00  0.00     0.319 C
ATOM     27  N   UNL     1      29.533   9.095  -5.143  1.00  0.00    -0.332 N
ATOM     28  H   UNL     1      31.533   8.171  -4.224  1.00  0.00     0.172 HD
ATOM     29  H   UNL     1      30.050   8.450  -5.726  1.00  0.00     0.165 HD
BRANCH  27  30
ATOM     30  C   UNL     1      28.249   9.537  -5.639  1.00  0.00     0.044 C
ATOM     31  C   UNL     1      27.672   8.750  -6.804  1.00  0.00     0.031 C
ATOM     32  C   UNL     1      27.021   8.670  -5.459  1.00  0.00     0.031 C
ATOM     33  G   UNL     1      28.064  11.047  -5.681  1.00  0.00     0.000 C
ENDBRANCH  27  30
ENDBRANCH  19  24
ENDBRANCH   9  18
ENDBRANCH   7   8
ENDBRANCH   1   7
BRANCH   6  34
ATOM     34  C   UNL     1      29.458  20.181  -6.458  1.00  0.00     0.104 C
BRANCH  34  35
ATOM     35  N   UNL     1      28.058  19.881  -6.112  1.00  0.00    -0.293 NA
ATOM     36  H   UNL     1      27.463  20.668  -6.367  1.00  0.00     0.125 HD
BRANCH  35  37
ATOM     37  C   UNL     1      27.572  18.730  -6.862  1.00  0.00     0.244 C
BRANCH  37  38
ATOM     38  O   UNL     1      28.235  17.557  -6.409  1.00  0.00    -0.366 OA
BRANCH  38  39
ATOM     39  C   UNL     1      27.761  17.146  -5.123  1.00  0.00     0.164 C
BRANCH  39  40
ATOM     40  C   UNL     1      27.664  15.623  -5.100  1.00  0.00     0.057 C
ATOM     41  G   UNL     1      27.982  14.980  -6.443  1.00  0.00     0.000 C
ENDBRANCH  39  40
ENDBRANCH  38  39
ENDBRANCH  37  38
ENDBRANCH  35  37
ENDBRANCH  34  35
ENDBRANCH   6  34
TORSDOF 0
ENDMDL
MODEL 2
REMARK VINA RESULT:      -8.1      1.660      3.859
REMARK SMILES O=C1Nc2c[nH]nc2-c2nc3ccc(cc3[nH]2)CN2CCOC[C@H]2CNCOCCC2(CC2)N1
REMARK SMILES IDX 19 1 20 2 21 3 22 4 23 5 24 6 18 7 14 8 9 9 10 10 17 11
REMARK SMILES IDX 11 12 16 13 12 14 15 15 13 16 8 18 4 19 5 20 6 21 7 22 3 24
REMARK SMILES IDX 1 25 2 26 34 27 31 30 32 31 33 32 25 34 26 35 27 37 28 38
REMARK SMILES IDX 29 39 30 40
REMARK H PARENT 17 17 6 23 3 28 34 29 26 36
REMARK Flexibility Score:  190.900
ROOT
ATOM      1  N   UNL     1      32.109  19.130  -6.056  1.00  0.00    -0.290 NA
ATOM      2  C   UNL     1      33.069  20.175  -6.473  1.00  0.00     0.113 C
ATOM      3  C   UNL     1      33.478  21.135  -5.348  1.00  0.00     0.175 C
ATOM      4  O   UNL     1      32.330  21.765  -4.772  1.00  0.00    -0.378 OA
ATOM      5  C   UNL     1      31.426  20.785  -4.246  1.00  0.00     0.180 C
ATOM      6  C   UNL     1      30.974  19.760  -5.319  1.00  0.00     0.096 C
ENDROOT
BRANCH   1   7
ATOM      7  C   UNL     1      32.772  18.076  -5.262  1.00  0.00     0.120 C
BRANCH   7   8
ATOM      8  C   UNL     1      31.802  16.996  -4.812  1.00  0.00    -0.032 A
ATOM      9  C   UNL     1      29.396  13.132  -4.863  1.00  0.00     0.161 A
ATOM     10  N   UNL     1      29.364  13.799  -3.718  1.00  0.00    -0.227 NA
ATOM     11  N   UNL     1      30.074  13.855  -5.800  1.00  0.00    -0.337 N
ATOM     12  C   UNL     1      30.142  14.914  -3.909  1.00  0.00     0.089 A
ATOM     13  C   UNL     1      30.566  14.994  -5.225  1.00  0.00     0.066 A
ATOM     14  C   UNL     1      30.549  15.905  -3.007  1.00  0.00     0.031 A
ATOM     15  C   UNL     1      31.343  16.034  -5.730  1.00  0.00     0.033 A
ATOM     16  C   UNL     1      31.402  16.923  -3.465  1.00  0.00     0.007 A
ATOM     17  H   UNL     1      30.208  13.578  -6.763  1.00  0.00     0.168 HD
BRANCH   9  18
ATOM     18  C   UNL     1      28.725  11.714  -5.083  1.00  0.00     0.151 A
ATOM     19  C   UNL     1      29.167  10.369  -4.825  1.00  0.00     0.092 A
ATOM     20  C   UNL     1      28.105   9.586  -5.243  1.00  0.00     0.132 A
ATOM     21  N   UNL     1      27.137  10.432  -5.679  1.00  0.00    -0.283 N
ATOM     22  N   UNL     1      27.466  11.714  -5.562  1.00  0.00    -0.170 NA
ATOM     23  H   UNL     1      26.219  10.207  -6.049  1.00  0.00     0.189 HD
BRANCH  19  24
ATOM     24  N   UNL     1      30.244   9.728  -4.226  1.00  0.00    -0.304 N
ATOM     25  O   UNL     1      32.078  11.068  -4.633  1.00  0.00    -0.248 OA
ATOM     26  C   UNL     1      31.519  10.175  -4.011  1.00  0.00     0.319 C
ATOM     27  N   UNL     1      32.131   9.492  -2.977  1.00  0.00    -0.332 N
ATOM     28  H   UNL     1      30.066   8.778  -3.935  1.00  0.00     0.172 HD
ATOM     29  H   UNL     1      31.584   8.831  -2.444  1.00  0.00     0.165 HD
BRANCH  27  30
ATOM     30  C   UNL     1      33.447   9.808  -2.469  1.00  0.00     0.044 C
ATOM     31  C   UNL     1      33.818   9.190  -1.132  1.00  0.00     0.031 C
ATOM     32  C   UNL     1      34.510   8.734  -2.378  1.00  0.00     0.031 C
ATOM     33  G   UNL     1      33.895  11.245  -2.700  1.00  0.00     0.000 C
ENDBRANCH  27  30
ENDBRANCH  19  24
ENDBRANCH   9  18
ENDBRANCH   7   8
ENDBRANCH   1   7
BRANCH   6  34
ATOM     34  C   UNL     1      29.956  20.404  -6.306  1.00  0.00     0.104 C
BRANCH  34  35
ATOM     35  N   UNL     1      29.144  19.375  -6.977  1.00  0.00    -0.293 NA
ATOM     36  H   UNL     1      29.715  18.551  -7.163  1.00  0.00     0.125 HD
BRANCH  35  37
ATOM     37  C   UNL     1      28.047  18.938  -6.123  1.00  0.00     0.244 C
BRANCH  37  38
ATOM     38  O   UNL     1      28.205  17.558  -5.821  1.00  0.00    -0.366 OA
BRANCH  38  39
ATOM     39  C   UNL     1      26.954  16.942  -5.501  1.00  0.00     0.164 C
BRANCH  39  40
ATOM     40  C   UNL     1      26.937  15.534  -6.089  1.00  0.00     0.057 C
ATOM     41  G   UNL     1      26.582  15.503  -7.569  1.00  0.00     0.000 C
ENDBRANCH  39  40
ENDBRANCH  38  39
ENDBRANCH  37  38
ENDBRANCH  35  37
ENDBRANCH  34  35
ENDBRANCH   6  34
TORSDOF 0
ENDMDL
MODEL 3
REMARK VINA RESULT:      -7.9      1.943      3.524
REMARK SMILES O=C1Nc2c[nH]nc2-c2nc3ccc(cc3[nH]2)CN2CCOC[C@H]2CNCOCCC2(CC2)N1
REMARK SMILES IDX 19 1 20 2 21 3 22 4 23 5 24 6 18 7 14 8 9 9 10 10 17 11
REMARK SMILES IDX 11 12 16 13 12 14 15 15 13 16 8 18 4 19 5 20 6 21 7 22 3 24
REMARK SMILES IDX 1 25 2 26 34 27 31 30 32 31 33 32 25 34 26 35 27 37 28 38
REMARK SMILES IDX 29 39 30 40
REMARK H PARENT 17 17 6 23 3 28 34 29 26 36
REMARK Flexibility Score:  190.900
ROOT
ATOM      1  N   UNL     1      32.298  16.963  -5.617  1.00  0.00    -0.290 NA
ATOM      2  C   UNL     1      33.205  16.997  -6.784  1.00  0.00     0.113 C
ATOM      3  C   UNL     1      34.242  18.128  -6.741  1.00  0.00     0.175 C
ATOM      4  O   UNL     1      33.602  19.401  -6.616  1.00  0.00    -0.378 OA
ATOM      5  C   UNL     1      32.802  19.451  -5.427  1.00  0.00     0.180 C
ATOM      6  C   UNL     1      31.735  18.326  -5.383  1.00  0.00     0.096 C
ENDROOT
BRANCH   1   7
ATOM      7  C   UNL     1      32.979  16.428  -4.421  1.00  0.00     0.120 C
BRANCH   7   8
ATOM      8  C   UNL     1      32.639  14.968  -4.168  1.00  0.00    -0.032 A
ATOM      9  C   UNL     1      30.704  10.883  -4.704  1.00  0.00     0.161 A
ATOM     10  N   UNL     1      31.692  10.925  -3.822  1.00  0.00    -0.227 NA
ATOM     11  N   UNL     1      30.437  12.141  -5.160  1.00  0.00    -0.337 N
ATOM     12  C   UNL     1      32.134  12.225  -3.812  1.00  0.00     0.089 A
ATOM     13  C   UNL     1      31.332  13.019  -4.614  1.00  0.00     0.066 A
ATOM     14  C   UNL     1      33.223  12.811  -3.155  1.00  0.00     0.031 A
ATOM     15  C   UNL     1      31.511  14.391  -4.778  1.00  0.00     0.033 A
ATOM     16  C   UNL     1      33.480  14.176  -3.365  1.00  0.00     0.007 A
ATOM     17  H   UNL     1      29.705  12.378  -5.815  1.00  0.00     0.168 HD
BRANCH   9  18
ATOM     18  C   UNL     1      29.955   9.555  -5.135  1.00  0.00     0.151 A
ATOM     19  C   UNL     1      28.752   9.306  -5.884  1.00  0.00     0.092 A
ATOM     20  C   UNL     1      28.656   7.925  -5.904  1.00  0.00     0.132 A
ATOM     21  N   UNL     1      29.734   7.443  -5.237  1.00  0.00    -0.283 N
ATOM     22  N   UNL     1      30.549   8.394  -4.795  1.00  0.00    -0.170 NA
ATOM     23  H   UNL     1      29.991   6.477  -5.061  1.00  0.00     0.189 HD
BRANCH  19  24
ATOM     24  N   UNL     1      27.813  10.029  -6.608  1.00  0.00    -0.304 N
ATOM     25  O   UNL     1      27.445  11.963  -5.405  1.00  0.00    -0.248 OA
ATOM     26  C   UNL     1      27.381  11.316  -6.441  1.00  0.00     0.319 C
ATOM     27  N   UNL     1      26.851  11.831  -7.609  1.00  0.00    -0.332 N
ATOM     28  H   UNL     1      27.358   9.514  -7.349  1.00  0.00     0.172 HD
ATOM     29  H   UNL     1      26.912  11.278  -8.453  1.00  0.00     0.165 HD
BRANCH  27  30
ATOM     30  C   UNL     1      26.397  13.196  -7.755  1.00  0.00     0.044 C
ATOM     31  C   UNL     1      25.037  13.386  -8.405  1.00  0.00     0.031 C
ATOM     32  C   UNL     1      25.216  13.699  -6.953  1.00  0.00     0.031 C
ATOM     33  G   UNL     1      27.480  14.193  -8.143  1.00  0.00     0.000 C
ENDBRANCH  27  30
ENDBRANCH  19  24
ENDBRANCH   9  18
ENDBRANCH   7   8
ENDBRANCH   1   7
BRANCH   6  34
ATOM     34  C   UNL     1      30.571  18.626  -6.372  1.00  0.00     0.104 C
BRANCH  34  35
ATOM     35  N   UNL     1      30.081  20.005  -6.210  1.00  0.00    -0.293 NA
ATOM     36  H   UNL     1      30.553  20.620  -6.872  1.00  0.00     0.125 HD
BRANCH  35  37
ATOM     37  C   UNL     1      28.656  20.090  -6.506  1.00  0.00     0.244 C
BRANCH  37  38
ATOM     38  O   UNL     1      28.215  18.857  -7.059  1.00  0.00    -0.366 OA
BRANCH  38  39
ATOM     39  C   UNL     1      26.862  18.568  -6.695  1.00  0.00     0.164 C
BRANCH  39  40
ATOM     40  C   UNL     1      26.794  17.145  -6.150  1.00  0.00     0.057 C
ATOM     41  G   UNL     1      27.593  16.952  -4.869  1.00  0.00     0.000 C
ENDBRANCH  39  40
ENDBRANCH  38  39
ENDBRANCH  37  38
ENDBRANCH  35  37
ENDBRANCH  34  35
ENDBRANCH   6  34
TORSDOF 0
ENDMDL
MODEL 4
REMARK VINA RESULT:      -7.8      1.987      3.618
REMARK SMILES O=C1Nc2c[nH]nc2-c2nc3ccc(cc3[nH]2)CN2CCOC[C@H]2CNCOCCC2(CC2)N1
REMARK SMILES IDX 19 1 20 2 21 3 22 4 23 5 24 6 18 7 14 8 9 9 10 10 17 11
REMARK SMILES IDX 11 12 16 13 12 14 15 15 13 16 8 18 4 19 5 20 6 21 7 22 3 24
REMARK SMILES IDX 1 25 2 26 34 27 31 30 32 31 33 32 25 34 26 35 27 37 28 38
REMARK SMILES IDX 29 39 30 40
REMARK H PARENT 17 17 6 23 3 28 34 29 26 36
REMARK Flexibility Score:  190.900
ROOT
ATOM      1  N   UNL     1      32.020  17.081  -5.316  1.00  0.00    -0.290 NA
ATOM      2  C   UNL     1      32.483  16.924  -6.711  1.00  0.00     0.113 C
ATOM      3  C   UNL     1      33.654  17.840  -7.090  1.00  0.00     0.175 C
ATOM      4  O   UNL     1      33.321  19.213  -6.867  1.00  0.00    -0.378 OA
ATOM      5  C   UNL     1      32.979  19.433  -5.492  1.00  0.00     0.180 C
ATOM      6  C   UNL     1      31.809  18.529  -5.021  1.00  0.00     0.096 C
ENDROOT
BRANCH   1   7
ATOM      7  C   UNL     1      32.954  16.448  -4.364  1.00  0.00     0.120 C
BRANCH   7   8
ATOM      8  C   UNL     1      32.641  14.977  -4.139  1.00  0.00    -0.032 A
ATOM      9  C   UNL     1      30.713  10.892  -4.698  1.00  0.00     0.161 A
ATOM     10  N   UNL     1      31.749  10.916  -3.873  1.00  0.00    -0.227 NA
ATOM     11  N   UNL     1      30.409  12.161  -5.096  1.00  0.00    -0.337 N
ATOM     12  C   UNL     1      32.180  12.219  -3.845  1.00  0.00     0.089 A
ATOM     13  C   UNL     1      31.327  13.030  -4.574  1.00  0.00     0.066 A
ATOM     14  C   UNL     1      33.300  12.795  -3.232  1.00  0.00     0.031 A
ATOM     15  C   UNL     1      31.484  14.409  -4.702  1.00  0.00     0.033 A
ATOM     16  C   UNL     1      33.533  14.168  -3.412  1.00  0.00     0.007 A
ATOM     17  H   UNL     1      29.639  12.411  -5.700  1.00  0.00     0.168 HD
BRANCH   9  18
ATOM     18  C   UNL     1      29.952   9.570  -5.128  1.00  0.00     0.151 A
ATOM     19  C   UNL     1      28.749   9.333  -5.882  1.00  0.00     0.092 A
ATOM     20  C   UNL     1      28.638   7.953  -5.899  1.00  0.00     0.132 A
ATOM     21  N   UNL     1      29.708   7.461  -5.227  1.00  0.00    -0.283 N
ATOM     22  N   UNL     1      30.532   8.405  -4.784  1.00  0.00    -0.170 NA
ATOM     23  H   UNL     1      29.954   6.492  -5.048  1.00  0.00     0.189 HD
BRANCH  19  24
ATOM     24  N   UNL     1      27.820  10.064  -6.611  1.00  0.00    -0.304 N
ATOM     25  O   UNL     1      27.442  11.989  -5.397  1.00  0.00    -0.248 OA
ATOM     26  C   UNL     1      27.389  11.351  -6.439  1.00  0.00     0.319 C
ATOM     27  N   UNL     1      26.874  11.877  -7.609  1.00  0.00    -0.332 N
ATOM     28  H   UNL     1      27.373   9.556  -7.362  1.00  0.00     0.172 HD
ATOM     29  H   UNL     1      26.945  11.331  -8.456  1.00  0.00     0.165 HD
BRANCH  27  30
ATOM     30  C   UNL     1      26.425  13.244  -7.749  1.00  0.00     0.044 C
ATOM     31  C   UNL     1      25.212  13.465  -8.635  1.00  0.00     0.031 C
ATOM     32  C   UNL     1      25.101  13.678  -7.158  1.00  0.00     0.031 C
ATOM     33  G   UNL     1      27.539  14.276  -7.854  1.00  0.00     0.000 C
ENDBRANCH  27  30
ENDBRANCH  19  24
ENDBRANCH   9  18
ENDBRANCH   7   8
ENDBRANCH   1   7
BRANCH   6  34
ATOM     34  C   UNL     1      30.454  19.027  -5.605  1.00  0.00     0.104 C
BRANCH  34  35
ATOM     35  N   UNL     1      29.345  18.760  -4.673  1.00  0.00    -0.293 NA
ATOM     36  H   UNL     1      28.725  19.567  -4.635  1.00  0.00     0.125 HD
BRANCH  35  37
ATOM     37  C   UNL     1      28.540  17.635  -5.131  1.00  0.00     0.244 C
BRANCH  37  38
ATOM     38  O   UNL     1      27.343  18.123  -5.724  1.00  0.00    -0.366 OA
BRANCH  38  39
ATOM     39  C   UNL     1      27.446  18.184  -7.150  1.00  0.00     0.164 C
BRANCH  39  40
ATOM     40  C   UNL     1      26.122  17.731  -7.757  1.00  0.00     0.057 C
ATOM     41  G   UNL     1      26.202  17.483  -9.257  1.00  0.00     0.000 C
ENDBRANCH  39  40
ENDBRANCH  38  39
ENDBRANCH  37  38
ENDBRANCH  35  37
ENDBRANCH  34  35
ENDBRANCH   6  34
TORSDOF 0
ENDMDL
MODEL 5
REMARK VINA RESULT:      -7.8      2.726      4.706
REMARK SMILES O=C1Nc2c[nH]nc2-c2nc3ccc(cc3[nH]2)CN2CCOC[C@H]2CNCOCCC2(CC2)N1
REMARK SMILES IDX 19 1 20 2 21 3 22 4 23 5 24 6 18 7 14 8 9 9 10 10 17 11
REMARK SMILES IDX 11 12 16 13 12 14 15 15 13 16 8 18 4 19 5 20 6 21 7 22 3 24
REMARK SMILES IDX 1 25 2 26 34 27 31 30 32 31 33 32 25 34 26 35 27 37 28 38
REMARK SMILES IDX 29 39 30 40
REMARK H PARENT 17 17 6 23 3 28 34 29 26 36
REMARK Flexibility Score:  190.900
ROOT
ATOM      1  N   UNL     1      31.592  14.742  -4.999  1.00  0.00    -0.290 NA
ATOM      2  C   UNL     1      31.997  15.855  -5.884  1.00  0.00     0.113 C
ATOM      3  C   UNL     1      32.576  17.067  -5.143  1.00  0.00     0.175 C
ATOM      4  O   UNL     1      31.648  17.562  -4.173  1.00  0.00    -0.378 OA
ATOM      5  C   UNL     1      31.319  16.543  -3.220  1.00  0.00     0.180 C
ATOM      6  C   UNL     1      30.740  15.270  -3.892  1.00  0.00     0.096 C
ENDROOT
BRANCH   1   7
ATOM      7  C   UNL     1      32.765  14.000  -4.495  1.00  0.00     0.120 C
BRANCH   7   8
ATOM      8  C   UNL     1      32.430  12.558  -4.146  1.00  0.00    -0.032 A
ATOM      9  C   UNL     1      30.622   8.395  -4.491  1.00  0.00     0.161 A
ATOM     10  N   UNL     1      31.528   8.537  -3.535  1.00  0.00    -0.227 NA
ATOM     11  N   UNL     1      30.373   9.603  -5.075  1.00  0.00    -0.337 N
ATOM     12  C   UNL     1      31.944   9.844  -3.600  1.00  0.00     0.089 A
ATOM     13  C   UNL     1      31.201  10.546  -4.533  1.00  0.00     0.066 A
ATOM     14  C   UNL     1      32.961  10.510  -2.905  1.00  0.00     0.031 A
ATOM     15  C   UNL     1      31.369  11.904  -4.799  1.00  0.00     0.033 A
ATOM     16  C   UNL     1      33.211  11.859  -3.209  1.00  0.00     0.007 A
ATOM     17  H   UNL     1      29.697   9.765  -5.808  1.00  0.00     0.168 HD
BRANCH   9  18
ATOM     18  C   UNL     1      29.937   7.017  -4.868  1.00  0.00     0.151 A
ATOM     19  C   UNL     1      29.123   6.597  -5.978  1.00  0.00     0.092 A
ATOM     20  C   UNL     1      28.852   5.267  -5.704  1.00  0.00     0.132 A
ATOM     21  N   UNL     1      29.486   4.965  -4.543  1.00  0.00    -0.283 N
ATOM     22  N   UNL     1      30.174   5.983  -4.037  1.00  0.00    -0.170 NA
ATOM     23  H   UNL     1      29.512   4.079  -4.048  1.00  0.00     0.189 HD
BRANCH  19  24
ATOM     24  N   UNL     1      28.671   7.112  -7.186  1.00  0.00    -0.304 N
ATOM     25  O   UNL     1      26.510   7.822  -6.797  1.00  0.00    -0.248 OA
ATOM     26  C   UNL     1      27.535   7.822  -7.464  1.00  0.00     0.319 C
ATOM     27  N   UNL     1      27.673   8.573  -8.617  1.00  0.00    -0.332 N
ATOM     28  H   UNL     1      29.254   6.901  -7.983  1.00  0.00     0.172 HD
ATOM     29  H   UNL     1      28.577   8.601  -9.069  1.00  0.00     0.165 HD
BRANCH  27  30
ATOM     30  C   UNL     1      26.669   9.490  -9.107  1.00  0.00     0.044 C
ATOM     31  C   UNL     1      26.530   9.588 -10.617  1.00  0.00     0.031 C
ATOM     32  C   UNL     1      25.434   8.966  -9.809  1.00  0.00     0.031 C
ATOM     33  G   UNL     1      26.556  10.793  -8.329  1.00  0.00     0.000 C
ENDBRANCH  27  30
ENDBRANCH  19  24
ENDBRANCH   9  18
ENDBRANCH   7   8
ENDBRANCH   1   7
BRANCH   6  34
ATOM     34  C   UNL     1      29.281  15.513  -4.376  1.00  0.00     0.104 C
BRANCH  34  35
ATOM     35  N   UNL     1      28.434  14.336  -4.121  1.00  0.00    -0.293 NA
ATOM     36  H   UNL     1      27.706  14.574  -3.449  1.00  0.00     0.125 HD
BRANCH  35  37
ATOM     37  C   UNL     1      27.755  13.908  -5.337  1.00  0.00     0.244 C
BRANCH  37  38
ATOM     38  O   UNL     1      28.520  14.304  -6.469  1.00  0.00    -0.366 OA
BRANCH  38  39
ATOM     39  C   UNL     1      27.700  14.468  -7.629  1.00  0.00     0.164 C
BRANCH  39  40
ATOM     40  C   UNL     1      28.027  15.811  -8.275  1.00  0.00     0.057 C
ATOM     41  G   UNL     1      27.527  17.003  -7.471  1.00  0.00     0.000 C
ENDBRANCH  39  40
ENDBRANCH  38  39
ENDBRANCH  37  38
ENDBRANCH  35  37
ENDBRANCH  34  35
ENDBRANCH   6  34
TORSDOF 0
ENDMDL
MODEL 6
REMARK VINA RESULT:      -7.7      1.809      4.034
REMARK SMILES O=C1Nc2c[nH]nc2-c2nc3ccc(cc3[nH]2)CN2CCOC[C@H]2CNCOCCC2(CC2)N1
REMARK SMILES IDX 19 1 20 2 21 3 22 4 23 5 24 6 18 7 14 8 9 9 10 10 17 11
REMARK SMILES IDX 11 12 16 13 12 14 15 15 13 16 8 18 4 19 5 20 6 21 7 22 3 24
REMARK SMILES IDX 1 25 2 26 34 27 31 30 32 31 33 32 25 34 26 35 27 37 28 38
REMARK SMILES IDX 29 39 30 40
REMARK H PARENT 17 17 6 23 3 28 34 29 26 36
REMARK Flexibility Score:  190.900
ROOT
ATOM      1  N   UNL     1      32.683  19.119  -6.217  1.00  0.00    -0.290 NA
ATOM      2  C   UNL     1      33.692  19.594  -7.187  1.00  0.00     0.113 C
ATOM      3  C   UNL     1      34.831  20.409  -6.559  1.00  0.00     0.175 C
ATOM      4  O   UNL     1      34.317  21.534  -5.840  1.00  0.00    -0.378 OA
ATOM      5  C   UNL     1      33.420  21.107  -4.806  1.00  0.00     0.180 C
ATOM      6  C   UNL     1      32.244  20.258  -5.356  1.00  0.00     0.096 C
ENDROOT
BRANCH   1   7
ATOM      7  C   UNL     1      33.192  17.984  -5.421  1.00  0.00     0.120 C
BRANCH   7   8
ATOM      8  C   UNL     1      32.086  17.025  -5.010  1.00  0.00    -0.032 A
ATOM      9  C   UNL     1      29.487  13.289  -4.939  1.00  0.00     0.161 A
ATOM     10  N   UNL     1      29.283  14.134  -3.939  1.00  0.00    -0.227 NA
ATOM     11  N   UNL     1      30.375  13.825  -5.825  1.00  0.00    -0.337 N
ATOM     12  C   UNL     1      30.154  15.176  -4.143  1.00  0.00     0.089 A
ATOM     13  C   UNL     1      30.822  15.025  -5.345  1.00  0.00     0.066 A
ATOM     14  C   UNL     1      30.446  16.287  -3.341  1.00  0.00     0.031 A
ATOM     15  C   UNL     1      31.747  15.942  -5.842  1.00  0.00     0.033 A
ATOM     16  C   UNL     1      31.435  17.187  -3.774  1.00  0.00     0.007 A
ATOM     17  H   UNL     1      30.670  13.390  -6.688  1.00  0.00     0.168 HD
BRANCH   9  18
ATOM     18  C   UNL     1      28.778  11.877  -5.066  1.00  0.00     0.151 A
ATOM     19  C   UNL     1      29.196  10.538  -4.745  1.00  0.00     0.092 A
ATOM     20  C   UNL     1      28.107   9.760  -5.096  1.00  0.00     0.132 A
ATOM     21  N   UNL     1      27.149  10.603  -5.555  1.00  0.00    -0.283 N
ATOM     22  N   UNL     1      27.509  11.881  -5.516  1.00  0.00    -0.170 NA
ATOM     23  H   UNL     1      26.217  10.381  -5.892  1.00  0.00     0.189 HD
BRANCH  19  24
ATOM     24  N   UNL     1      30.272   9.905  -4.136  1.00  0.00    -0.304 N
ATOM     25  O   UNL     1      32.133  11.148  -4.699  1.00  0.00    -0.248 OA
ATOM     26  C   UNL     1      31.568  10.321  -3.997  1.00  0.00     0.319 C
ATOM     27  N   UNL     1      32.193   9.693  -2.935  1.00  0.00    -0.332 N
ATOM     28  H   UNL     1      30.073   8.984  -3.772  1.00  0.00     0.172 HD
ATOM     29  H   UNL     1      31.643   9.091  -2.338  1.00  0.00     0.165 HD
BRANCH  27  30
ATOM     30  C   UNL     1      33.536  10.000  -2.495  1.00  0.00     0.044 C
ATOM     31  C   UNL     1      34.010   9.286  -1.241  1.00  0.00     0.031 C
ATOM     32  C   UNL     1      34.621   8.947  -2.564  1.00  0.00     0.031 C
ATOM     33  G   UNL     1      33.939  11.460  -2.639  1.00  0.00     0.000 C
ENDBRANCH  27  30
ENDBRANCH  19  24
ENDBRANCH   9  18
ENDBRANCH   7   8
ENDBRANCH   1   7
BRANCH   6  34
ATOM     34  C   UNL     1      31.213  21.156  -6.101  1.00  0.00     0.104 C
BRANCH  34  35
ATOM     35  N   UNL     1      29.879  21.055  -5.485  1.00  0.00    -0.293 NA
ATOM     36  H   UNL     1      29.598  21.964  -5.119  1.00  0.00     0.125 HD
BRANCH  35  37
ATOM     37  C   UNL     1      28.877  20.675  -6.472  1.00  0.00     0.244 C
BRANCH  37  38
ATOM     38  O   UNL     1      28.201  19.505  -6.032  1.00  0.00    -0.366 OA
BRANCH  38  39
ATOM     39  C   UNL     1      27.132  19.149  -6.914  1.00  0.00     0.164 C
BRANCH  39  40
ATOM     40  C   UNL     1      26.530  17.827  -6.446  1.00  0.00     0.057 C
ATOM     41  G   UNL     1      27.491  16.989  -5.615  1.00  0.00     0.000 C
ENDBRANCH  39  40
ENDBRANCH  38  39
ENDBRANCH  37  38
ENDBRANCH  35  37
ENDBRANCH  34  35
ENDBRANCH   6  34
TORSDOF 0
ENDMDL
MODEL 7
REMARK VINA RESULT:      -7.7      2.890      5.466
REMARK SMILES O=C1Nc2c[nH]nc2-c2nc3ccc(cc3[nH]2)CN2CCOC[C@H]2CNCOCCC2(CC2)N1
REMARK SMILES IDX 19 1 20 2 21 3 22 4 23 5 24 6 18 7 14 8 9 9 10 10 17 11
REMARK SMILES IDX 11 12 16 13 12 14 15 15 13 16 8 18 4 19 5 20 6 21 7 22 3 24
REMARK SMILES IDX 1 25 2 26 34 27 31 30 32 31 33 32 25 34 26 35 27 37 28 38
REMARK SMILES IDX 29 39 30 40
REMARK H PARENT 17 17 6 23 3 28 34 29 26 36
REMARK Flexibility Score:  190.900
ROOT
ATOM      1  N   UNL     1      31.908  13.935  -4.477  1.00  0.00    -0.290 NA
ATOM      2  C   UNL     1      32.462  15.225  -4.943  1.00  0.00     0.113 C
ATOM      3  C   UNL     1      32.710  16.242  -3.821  1.00  0.00     0.175 C
ATOM      4  O   UNL     1      31.509  16.495  -3.087  1.00  0.00    -0.378 OA
ATOM      5  C   UNL     1      31.001  15.282  -2.515  1.00  0.00     0.180 C
ATOM      6  C   UNL     1      30.738  14.189  -3.585  1.00  0.00     0.096 C
ENDROOT
BRANCH   1   7
ATOM      7  C   UNL     1      32.942  13.111  -3.820  1.00  0.00     0.120 C
BRANCH   7   8
ATOM      8  C   UNL     1      32.512  11.661  -3.666  1.00  0.00    -0.032 A
ATOM      9  C   UNL     1      30.496   7.687  -4.598  1.00  0.00     0.161 A
ATOM     10  N   UNL     1      31.362   7.656  -3.595  1.00  0.00    -0.227 NA
ATOM     11  N   UNL     1      30.343   8.969  -5.037  1.00  0.00    -0.337 N
ATOM     12  C   UNL     1      31.852   8.934  -3.480  1.00  0.00     0.089 A
ATOM     13  C   UNL     1      31.195   9.788  -4.349  1.00  0.00     0.066 A
ATOM     14  C   UNL     1      32.870   9.449  -2.667  1.00  0.00     0.031 A
ATOM     15  C   UNL     1      31.449  11.155  -4.437  1.00  0.00     0.033 A
ATOM     16  C   UNL     1      33.208  10.806  -2.792  1.00  0.00     0.007 A
ATOM     17  H   UNL     1      29.712   9.260  -5.771  1.00  0.00     0.168 HD
BRANCH   9  18
ATOM     18  C   UNL     1      29.756   6.408  -5.170  1.00  0.00     0.151 A
ATOM     19  C   UNL     1      29.210   6.087  -6.462  1.00  0.00     0.092 A
ATOM     20  C   UNL     1      28.703   4.810  -6.297  1.00  0.00     0.132 A
ATOM     21  N   UNL     1      28.967   4.440  -5.019  1.00  0.00    -0.283 N
ATOM     22  N   UNL     1      29.628   5.363  -4.329  1.00  0.00    -0.170 NA
ATOM     23  H   UNL     1      28.745   3.566  -4.553  1.00  0.00     0.189 HD
BRANCH  19  24
ATOM     24  N   UNL     1      29.160   6.642  -7.734  1.00  0.00    -0.304 N
ATOM     25  O   UNL     1      26.946   7.176  -8.101  1.00  0.00    -0.248 OA
ATOM     26  C   UNL     1      28.134   7.287  -8.368  1.00  0.00     0.319 C
ATOM     27  N   UNL     1      28.597   8.115  -9.374  1.00  0.00    -0.332 N
ATOM     28  H   UNL     1      29.999   6.520  -8.284  1.00  0.00     0.172 HD
ATOM     29  H   UNL     1      29.595   8.233  -9.482  1.00  0.00     0.165 HD
BRANCH  27  30
ATOM     30  C   UNL     1      27.749   8.988 -10.154  1.00  0.00     0.044 C
ATOM     31  C   UNL     1      28.196   9.261 -11.579  1.00  0.00     0.031 C
ATOM     32  C   UNL     1      26.968   8.443 -11.331  1.00  0.00     0.031 C
ATOM     33  G   UNL     1      27.165  10.167  -9.388  1.00  0.00     0.000 C
ENDBRANCH  27  30
ENDBRANCH  19  24
ENDBRANCH   9  18
ENDBRANCH   7   8
ENDBRANCH   1   7
BRANCH   6  34
ATOM     34  C   UNL     1      29.464  14.520  -4.415  1.00  0.00     0.104 C
BRANCH  34  35
ATOM     35  N   UNL     1      28.945  15.857  -4.080  1.00  0.00    -0.293 NA
ATOM     36  H   UNL     1      29.522  16.280  -3.354  1.00  0.00     0.125 HD
BRANCH  35  37
ATOM     37  C   UNL     1      29.010  16.745  -5.234  1.00  0.00     0.244 C
BRANCH  37  38
ATOM     38  O   UNL     1      29.157  18.087  -4.789  1.00  0.00    -0.366 OA
BRANCH  38  39
ATOM     39  C   UNL     1      29.862  18.886  -5.744  1.00  0.00     0.164 C
BRANCH  39  40
ATOM     40  C   UNL     1      31.236  19.230  -5.176  1.00  0.00     0.057 C
ATOM     41  G   UNL     1      31.276  20.579  -4.472  1.00  0.00     0.000 C
ENDBRANCH  39  40
ENDBRANCH  38  39
ENDBRANCH  37  38
ENDBRANCH  35  37
ENDBRANCH  34  35
ENDBRANCH   6  34
TORSDOF 0
ENDMDL
MODEL 8
REMARK VINA RESULT:      -7.7      2.043      3.070
REMARK SMILES O=C1Nc2c[nH]nc2-c2nc3ccc(cc3[nH]2)CN2CCOC[C@H]2CNCOCCC2(CC2)N1
REMARK SMILES IDX 19 1 20 2 21 3 22 4 23 5 24 6 18 7 14 8 9 9 10 10 17 11
REMARK SMILES IDX 11 12 16 13 12 14 15 15 13 16 8 18 4 19 5 20 6 21 7 22 3 24
REMARK SMILES IDX 1 25 2 26 34 27 31 30 32 31 33 32 25 34 26 35 27 37 28 38
REMARK SMILES IDX 29 39 30 40
REMARK H PARENT 17 17 6 23 3 28 34 29 26 36
REMARK Flexibility Score:  190.900
ROOT
ATOM      1  N   UNL     1      32.522  18.324  -6.093  1.00  0.00    -0.290 NA
ATOM      2  C   UNL     1      33.418  18.848  -7.147  1.00  0.00     0.113 C
ATOM      3  C   UNL     1      34.346  19.975  -6.677  1.00  0.00     0.175 C
ATOM      4  O   UNL     1      33.593  21.061  -6.129  1.00  0.00    -0.378 OA
ATOM      5  C   UNL     1      32.797  20.618  -5.023  1.00  0.00     0.180 C
ATOM      6  C   UNL     1      31.838  19.461  -5.410  1.00  0.00     0.096 C
ENDROOT
BRANCH   1   7
ATOM      7  C   UNL     1      33.254  17.462  -5.144  1.00  0.00     0.120 C
BRANCH   7   8
ATOM      8  C   UNL     1      32.431  16.263  -4.701  1.00  0.00    -0.032 A
ATOM      9  C   UNL     1      30.661  12.069  -4.700  1.00  0.00     0.161 A
ATOM     10  N   UNL     1      30.441  12.772  -3.599  1.00  0.00    -0.227 NA
ATOM     11  N   UNL     1      31.288  12.848  -5.628  1.00  0.00    -0.337 N
ATOM     12  C   UNL     1      31.049  13.987  -3.798  1.00  0.00     0.089 A
ATOM     13  C   UNL     1      31.553  14.074  -5.085  1.00  0.00     0.066 A
ATOM     14  C   UNL     1      31.229  15.068  -2.927  1.00  0.00     0.031 A
ATOM     15  C   UNL     1      32.196  15.201  -5.593  1.00  0.00     0.033 A
ATOM     16  C   UNL     1      31.947  16.187  -3.383  1.00  0.00     0.007 A
ATOM     17  H   UNL     1      31.535  12.553  -6.563  1.00  0.00     0.168 HD
BRANCH   9  18
ATOM     18  C   UNL     1      30.235  10.554  -4.886  1.00  0.00     0.151 A
ATOM     19  C   UNL     1      29.140   9.920  -5.572  1.00  0.00     0.092 A
ATOM     20  C   UNL     1      29.349   8.570  -5.348  1.00  0.00     0.132 A
ATOM     21  N   UNL     1      30.484   8.461  -4.613  1.00  0.00    -0.283 N
ATOM     22  N   UNL     1      31.057   9.630  -4.351  1.00  0.00    -0.170 NA
ATOM     23  H   UNL     1      30.940   7.620  -4.273  1.00  0.00     0.189 HD
BRANCH  19  24
ATOM     24  N   UNL     1      28.090  10.281  -6.406  1.00  0.00    -0.304 N
ATOM     25  O   UNL     1      27.370  12.340  -5.653  1.00  0.00    -0.248 OA
ATOM     26  C   UNL     1      27.430  11.475  -6.515  1.00  0.00     0.319 C
ATOM     27  N   UNL     1      26.823  11.610  -7.750  1.00  0.00    -0.332 N
ATOM     28  H   UNL     1      27.741   9.540  -6.997  1.00  0.00     0.172 HD
ATOM     29  H   UNL     1      26.989  10.901  -8.450  1.00  0.00     0.165 HD
BRANCH  27  30
ATOM     30  C   UNL     1      26.130  12.803  -8.181  1.00  0.00     0.044 C
ATOM     31  C   UNL     1      24.825  12.589  -8.928  1.00  0.00     0.031 C
ATOM     32  C   UNL     1      24.805  13.185  -7.556  1.00  0.00     0.031 C
ATOM     33  G   UNL     1      27.031  13.917  -8.695  1.00  0.00     0.000 C
ENDBRANCH  27  30
ENDBRANCH  19  24
ENDBRANCH   9  18
ENDBRANCH   7   8
ENDBRANCH   1   7
BRANCH   6  34
ATOM     34  C   UNL     1      30.647  19.990  -6.262  1.00  0.00     0.104 C
BRANCH  34  35
ATOM     35  N   UNL     1      29.748  18.893  -6.656  1.00  0.00    -0.293 NA
ATOM     36  H   UNL     1      30.035  18.029  -6.198  1.00  0.00     0.125 HD
BRANCH  35  37
ATOM     37  C   UNL     1      28.382  19.159  -6.225  1.00  0.00     0.244 C
BRANCH  37  38
ATOM     38  O   UNL     1      27.790  17.952  -5.761  1.00  0.00    -0.366 OA
BRANCH  38  39
ATOM     39  C   UNL     1      28.778  16.975  -5.422  1.00  0.00     0.164 C
BRANCH  39  40
ATOM     40  C   UNL     1      28.073  15.685  -5.016  1.00  0.00     0.057 C
ATOM     41  G   UNL     1      26.584  15.688  -5.332  1.00  0.00     0.000 C
ENDBRANCH  39  40
ENDBRANCH  38  39
ENDBRANCH  37  38
ENDBRANCH  35  37
ENDBRANCH  34  35
ENDBRANCH   6  34
TORSDOF 0
ENDMDL
MODEL 9
REMARK VINA RESULT:      -7.6      2.198      3.974
REMARK SMILES O=C1Nc2c[nH]nc2-c2nc3ccc(cc3[nH]2)CN2CCOC[C@H]2CNCOCCC2(CC2)N1
REMARK SMILES IDX 19 1 20 2 21 3 22 4 23 5 24 6 18 7 14 8 9 9 10 10 17 11
REMARK SMILES IDX 11 12 16 13 12 14 15 15 13 16 8 18 4 19 5 20 6 21 7 22 3 24
REMARK SMILES IDX 1 25 2 26 34 27 31 30 32 31 33 32 25 34 26 35 27 37 28 38
REMARK SMILES IDX 29 39 30 40
REMARK H PARENT 17 17 6 23 3 28 34 29 26 36
REMARK Flexibility Score:  190.900
ROOT
ATOM      1  N   UNL     1      32.268  16.813  -5.483  1.00  0.00    -0.290 NA
ATOM      2  C   UNL     1      33.272  17.397  -6.398  1.00  0.00     0.113 C
ATOM      3  C   UNL     1      33.829  18.750  -5.938  1.00  0.00     0.175 C
ATOM      4  O   UNL     1      32.774  19.697  -5.746  1.00  0.00    -0.378 OA
ATOM      5  C   UNL     1      31.837  19.220  -4.771  1.00  0.00     0.180 C
ATOM      6  C   UNL     1      31.237  17.841  -5.153  1.00  0.00     0.096 C
ENDROOT
BRANCH   1   7
ATOM      7  C   UNL     1      32.904  16.254  -4.273  1.00  0.00     0.120 C
BRANCH   7   8
ATOM      8  C   UNL     1      32.601  14.775  -4.093  1.00  0.00    -0.032 A
ATOM      9  C   UNL     1      30.656  10.709  -4.736  1.00  0.00     0.161 A
ATOM     10  N   UNL     1      31.724  10.704  -3.950  1.00  0.00    -0.227 NA
ATOM     11  N   UNL     1      30.337  11.992  -5.073  1.00  0.00    -0.337 N
ATOM     12  C   UNL     1      32.154  12.006  -3.889  1.00  0.00     0.089 A
ATOM     13  C   UNL     1      31.273  12.843  -4.553  1.00  0.00     0.066 A
ATOM     14  C   UNL     1      33.296  12.561  -3.298  1.00  0.00     0.031 A
ATOM     15  C   UNL     1      31.424  14.226  -4.634  1.00  0.00     0.033 A
ATOM     16  C   UNL     1      33.521  13.941  -3.433  1.00  0.00     0.007 A
ATOM     17  H   UNL     1      29.544  12.264  -5.637  1.00  0.00     0.168 HD
BRANCH   9  18
ATOM     18  C   UNL     1      29.881   9.404  -5.188  1.00  0.00     0.151 A
ATOM     19  C   UNL     1      28.688   9.191  -5.964  1.00  0.00     0.092 A
ATOM     20  C   UNL     1      28.554   7.814  -5.992  1.00  0.00     0.132 A
ATOM     21  N   UNL     1      29.603   7.299  -5.303  1.00  0.00    -0.283 N
ATOM     22  N   UNL     1      30.435   8.226  -4.840  1.00  0.00    -0.170 NA
ATOM     23  H   UNL     1      29.829   6.326  -5.126  1.00  0.00     0.189 HD
BRANCH  19  24
ATOM     24  N   UNL     1      27.785   9.942  -6.706  1.00  0.00    -0.304 N
ATOM     25  O   UNL     1      27.381  11.844  -5.464  1.00  0.00    -0.248 OA
ATOM     26  C   UNL     1      27.355  11.228  -6.519  1.00  0.00     0.319 C
ATOM     27  N   UNL     1      26.879  11.780  -7.694  1.00  0.00    -0.332 N
ATOM     28  H   UNL     1      27.358   9.452  -7.479  1.00  0.00     0.172 HD
ATOM     29  H   UNL     1      26.972  11.251  -8.550  1.00  0.00     0.165 HD
BRANCH  27  30
ATOM     30  C   UNL     1      26.441  13.152  -7.819  1.00  0.00     0.044 C
ATOM     31  C   UNL     1      25.313  13.410  -8.803  1.00  0.00     0.031 C
ATOM     32  C   UNL     1      25.067  13.564  -7.334  1.00  0.00     0.031 C
ATOM     33  G   UNL     1      27.557  14.187  -7.780  1.00  0.00     0.000 C
ENDBRANCH  27  30
ENDBRANCH  19  24
ENDBRANCH   9  18
ENDBRANCH   7   8
ENDBRANCH   1   7
BRANCH   6  34
ATOM     34  C   UNL     1      30.204  17.988  -6.309  1.00  0.00     0.104 C
BRANCH  34  35
ATOM     35  N   UNL     1      29.951  19.405  -6.618  1.00  0.00    -0.293 NA
ATOM     36  H   UNL     1      30.345  19.636  -7.529  1.00  0.00     0.125 HD
BRANCH  35  37
ATOM     37  C   UNL     1      28.521  19.672  -6.703  1.00  0.00     0.244 C
BRANCH  37  38
ATOM     38  O   UNL     1      28.232  20.909  -6.065  1.00  0.00    -0.366 OA
BRANCH  38  39
ATOM     39  C   UNL     1      27.821  21.905  -7.006  1.00  0.00     0.164 C
BRANCH  39  40
ATOM     40  C   UNL     1      26.352  22.237  -6.757  1.00  0.00     0.057 C
ATOM     41  G   UNL     1      25.404  21.521  -7.708  1.00  0.00     0.000 C
ENDBRANCH  39  40
ENDBRANCH  38  39
ENDBRANCH  37  38
ENDBRANCH  35  37
ENDBRANCH  34  35
ENDBRANCH   6  34
TORSDOF 0
ENDMDL
