MODEL 1
REMARK VINA RESULT:      -7.7      0.000      0.000
REMARK SMILES C1=C2\CNC[C@H]3CCCN3CCOc3ccc(cc3COC/1)Nc1nccc(n1)-c1ccc(s1)COC2
REMARK SMILES IDX 14 1 15 2 16 3 17 4 18 5 19 6 20 7 21 8 22 9 1 10 2 11 3 13
REMARK SMILES IDX 4 14 5 16 13 18 12 19 11 20 10 21 9 22 6 23 8 24 7 25 23 27
REMARK SMILES IDX 24 29 25 30 29 31 26 32 28 33 27 34 30 35 31 36 34 37 32 38
REMARK SMILES IDX 33 39 35 40 36 41 37 42
REMARK H PARENT 4 15 23 28
REMARK Flexibility Score:   91.800
ROOT
ATOM      1  C   UNL     1      30.877  16.076  -5.423  1.00  0.00     0.125 A
ATOM      2  C   UNL     1      30.558  15.215  -4.369  1.00  0.00     0.049 A
ATOM      3  C   UNL     1      31.534  14.842  -3.441  1.00  0.00     0.030 A
ATOM      4  C   UNL     1      32.843  15.311  -3.565  1.00  0.00     0.042 A
ATOM      5  C   UNL     1      33.127  16.222  -4.595  1.00  0.00     0.036 A
ATOM      6  C   UNL     1      32.152  16.648  -5.513  1.00  0.00     0.022 A
ENDROOT
BRANCH   6   7
ATOM      7  C   UNL     1      32.531  17.718  -6.511  1.00  0.00     0.200 C
BRANCH   7   8
ATOM      8  O   UNL     1      33.745  18.401  -6.164  1.00  0.00    -0.373 OA
BRANCH   8   9
ATOM      9  C   UNL     1      33.742  19.732  -6.676  1.00  0.00     0.188 C
BRANCH   9  10
ATOM     10  C   UNL     1      33.532  20.731  -5.589  1.00  0.00     0.004 C
ATOM     11  C   UNL     1      32.341  21.242  -5.194  1.00  0.00    -0.033 C
ATOM     12  G   UNL     1      32.246  22.271  -4.072  1.00  0.00     0.000 C
BRANCH  11  13
ATOM     13  C   UNL     1      30.960  20.895  -5.750  1.00  0.00     0.114 C
BRANCH  13  14
ATOM     14  N   UNL     1      30.109  22.016  -6.143  1.00  0.00    -0.311 NA
ATOM     15  H   UNL     1      29.622  22.372  -5.317  1.00  0.00     0.123 HD
BRANCH  14  16
ATOM     16  C   UNL     1      29.082  21.631  -7.119  1.00  0.00     0.100 C
ATOM     17  G   UNL     1      28.279  20.378  -6.664  1.00  0.00     0.000 C
ENDBRANCH  14  16
ENDBRANCH  13  14
ENDBRANCH  11  13
ENDBRANCH   9  10
ENDBRANCH   8   9
ENDBRANCH   7   8
ENDBRANCH   6   7
BRANCH   1  18
ATOM     18  O   UNL     1      29.890  16.287  -6.356  1.00  0.00    -0.492 OA
BRANCH  18  19
ATOM     19  C   UNL     1      28.797  17.011  -5.758  1.00  0.00     0.245 C
BRANCH  19  20
ATOM     20  C   UNL     1      27.476  16.246  -5.891  1.00  0.00     0.126 C
BRANCH  20  21
ATOM     21  N   UNL     1      27.511  15.251  -6.995  1.00  0.00    -0.296 NA
ATOM     22  C   UNL     1      27.184  13.909  -6.480  1.00  0.00     0.085 C
ATOM     23  C   UNL     1      26.497  15.553  -8.052  1.00  0.00     0.070 C
ATOM     24  C   UNL     1      25.688  13.764  -6.654  1.00  0.00     0.017 C
ATOM     25  C   UNL     1      25.461  14.419  -7.998  1.00  0.00     0.022 C
ATOM     26  G   UNL     1      27.107  15.658  -9.480  1.00  0.00     0.000 C
ENDBRANCH  20  21
ENDBRANCH  19  20
ENDBRANCH  18  19
ENDBRANCH   1  18
BRANCH   4  27
ATOM     27  N   UNL     1      33.856  14.802  -2.745  1.00  0.00    -0.324 N
ATOM     28  H   UNL     1      34.420  15.438  -2.209  1.00  0.00     0.170 HD
BRANCH  27  29
ATOM     29  C   UNL     1      34.214  13.470  -2.556  1.00  0.00     0.227 A
ATOM     30  N   UNL     1      35.346  13.217  -1.885  1.00  0.00    -0.221 NA
ATOM     31  N   UNL     1      33.399  12.507  -3.002  1.00  0.00    -0.212 NA
ATOM     32  C   UNL     1      35.686  11.920  -1.732  1.00  0.00     0.117 A
ATOM     33  C   UNL     1      33.763  11.229  -2.818  1.00  0.00     0.086 A
ATOM     34  C   UNL     1      34.928  10.868  -2.188  1.00  0.00     0.050 A
BRANCH  33  35
ATOM     35  C   UNL     1      32.769  10.275  -3.294  1.00  0.00     0.053 A
ATOM     36  C   UNL     1      32.655   8.939  -2.961  1.00  0.00     0.022 A
ATOM     37  S   UNL     1      31.495  10.772  -4.319  1.00  0.00    -0.136 S
ATOM     38  C   UNL     1      31.498   8.334  -3.525  1.00  0.00     0.018 A
ATOM     39  C   UNL     1      30.733   9.236  -4.238  1.00  0.00     0.031 A
BRANCH  39  40
ATOM     40  C   UNL     1      29.402   9.015  -4.883  1.00  0.00     0.207 C
BRANCH  40  41
ATOM     41  O   UNL     1      28.568  10.150  -4.634  1.00  0.00    -0.372 OA
BRANCH  41  42
ATOM     42  C   UNL     1      27.467  10.285  -5.533  1.00  0.00     0.193 C
ATOM     43  G   UNL     1      27.222   9.043  -6.384  1.00  0.00     0.000 C
ENDBRANCH  41  42
ENDBRANCH  40  41
ENDBRANCH  39  40
ENDBRANCH  33  35
ENDBRANCH  27  29
ENDBRANCH   4  27
TORSDOF 0
ENDMDL
MODEL 2
REMARK VINA RESULT:      -7.6      1.643      2.012
REMARK SMILES C1=C2\CNC[C@H]3CCCN3CCOc3ccc(cc3COC/1)Nc1nccc(n1)-c1ccc(s1)COC2
REMARK SMILES IDX 14 1 15 2 16 3 17 4 18 5 19 6 20 7 21 8 22 9 1 10 2 11 3 13
REMARK SMILES IDX 4 14 5 16 13 18 12 19 11 20 10 21 9 22 6 23 8 24 7 25 23 27
REMARK SMILES IDX 24 29 25 30 29 31 26 32 28 33 27 34 30 35 31 36 34 37 32 38
REMARK SMILES IDX 33 39 35 40 36 41 37 42
REMARK H PARENT 4 15 23 28
REMARK Flexibility Score:   91.800
ROOT
ATOM      1  C   UNL     1      31.190  16.288  -3.814  1.00  0.00     0.125 A
ATOM      2  C   UNL     1      31.069  15.654  -2.574  1.00  0.00     0.049 A
ATOM      3  C   UNL     1      32.077  14.801  -2.115  1.00  0.00     0.030 A
ATOM      4  C   UNL     1      33.208  14.558  -2.898  1.00  0.00     0.042 A
ATOM      5  C   UNL     1      33.337  15.252  -4.111  1.00  0.00     0.036 A
ATOM      6  C   UNL     1      32.359  16.150  -4.573  1.00  0.00     0.022 A
ENDROOT
BRANCH   6   7
ATOM      7  C   UNL     1      32.647  16.931  -5.834  1.00  0.00     0.200 C
BRANCH   7   8
ATOM      8  O   UNL     1      31.912  18.163  -5.908  1.00  0.00    -0.373 OA
BRANCH   8   9
ATOM      9  C   UNL     1      32.708  19.195  -6.486  1.00  0.00     0.188 C
BRANCH   9  10
ATOM     10  C   UNL     1      32.972  20.288  -5.507  1.00  0.00     0.004 C
ATOM     11  C   UNL     1      32.064  21.177  -5.039  1.00  0.00    -0.033 C
ATOM     12  G   UNL     1      32.452  22.266  -4.043  1.00  0.00     0.000 C
BRANCH  11  13
ATOM     13  C   UNL     1      30.576  21.243  -5.387  1.00  0.00     0.114 C
BRANCH  13  14
ATOM     14  N   UNL     1      30.191  22.162  -6.456  1.00  0.00    -0.311 NA
ATOM     15  H   UNL     1      30.081  23.101  -6.067  1.00  0.00     0.123 HD
BRANCH  14  16
ATOM     16  C   UNL     1      28.913  21.797  -7.080  1.00  0.00     0.100 C
ATOM     17  G   UNL     1      28.482  20.343  -6.731  1.00  0.00     0.000 C
ENDBRANCH  14  16
ENDBRANCH  13  14
ENDBRANCH  11  13
ENDBRANCH   9  10
ENDBRANCH   8   9
ENDBRANCH   7   8
ENDBRANCH   6   7
BRANCH   1  18
ATOM     18  O   UNL     1      30.098  17.007  -4.239  1.00  0.00    -0.492 OA
BRANCH  18  19
ATOM     19  C   UNL     1      28.979  16.123  -4.445  1.00  0.00     0.245 C
BRANCH  19  20
ATOM     20  C   UNL     1      28.342  16.335  -5.823  1.00  0.00     0.126 C
BRANCH  20  21
ATOM     21  N   UNL     1      28.551  15.173  -6.725  1.00  0.00    -0.296 NA
ATOM     22  C   UNL     1      29.126  14.043  -5.972  1.00  0.00     0.085 C
ATOM     23  C   UNL     1      27.266  14.679  -7.308  1.00  0.00     0.070 C
ATOM     24  C   UNL     1      27.940  13.225  -5.508  1.00  0.00     0.017 C
ATOM     25  C   UNL     1      27.025  13.283  -6.711  1.00  0.00     0.022 C
ATOM     26  G   UNL     1      27.282  14.603  -8.863  1.00  0.00     0.000 C
ENDBRANCH  20  21
ENDBRANCH  19  20
ENDBRANCH  18  19
ENDBRANCH   1  18
BRANCH   4  27
ATOM     27  N   UNL     1      34.128  13.575  -2.521  1.00  0.00    -0.324 N
ATOM     28  H   UNL     1      35.039  13.852  -2.198  1.00  0.00     0.170 HD
BRANCH  27  29
ATOM     29  C   UNL     1      33.955  12.194  -2.531  1.00  0.00     0.227 A
ATOM     30  N   UNL     1      34.823  11.450  -1.830  1.00  0.00    -0.221 NA
ATOM     31  N   UNL     1      32.914  11.673  -3.191  1.00  0.00    -0.212 NA
ATOM     32  C   UNL     1      34.650  10.112  -1.871  1.00  0.00     0.117 A
ATOM     33  C   UNL     1      32.767  10.339  -3.196  1.00  0.00     0.086 A
ATOM     34  C   UNL     1      33.630   9.490  -2.552  1.00  0.00     0.050 A
BRANCH  33  35
ATOM     35  C   UNL     1      31.567   9.898  -3.897  1.00  0.00     0.053 A
ATOM     36  C   UNL     1      30.622  10.683  -4.529  1.00  0.00     0.022 A
ATOM     37  S   UNL     1      31.232   8.235  -4.102  1.00  0.00    -0.136 S
ATOM     38  C   UNL     1      29.639   9.912  -5.209  1.00  0.00     0.018 A
ATOM     39  C   UNL     1      29.885   8.556  -5.118  1.00  0.00     0.031 A
BRANCH  39  40
ATOM     40  C   UNL     1      29.151   7.435  -5.781  1.00  0.00     0.207 C
BRANCH  40  41
ATOM     41  O   UNL     1      29.385   6.227  -5.052  1.00  0.00    -0.372 OA
BRANCH  41  42
ATOM     42  C   UNL     1      29.166   5.031  -5.800  1.00  0.00     0.193 C
ATOM     43  G   UNL     1      29.486   5.177  -7.285  1.00  0.00     0.000 C
ENDBRANCH  41  42
ENDBRANCH  40  41
ENDBRANCH  39  40
ENDBRANCH  33  35
ENDBRANCH  27  29
ENDBRANCH   4  27
TORSDOF 0
ENDMDL
MODEL 3
REMARK VINA RESULT:      -7.6      1.281      2.053
REMARK SMILES C1=C2\CNC[C@H]3CCCN3CCOc3ccc(cc3COC/1)Nc1nccc(n1)-c1ccc(s1)COC2
REMARK SMILES IDX 14 1 15 2 16 3 17 4 18 5 19 6 20 7 21 8 22 9 1 10 2 11 3 13
REMARK SMILES IDX 4 14 5 16 13 18 12 19 11 20 10 21 9 22 6 23 8 24 7 25 23 27
REMARK SMILES IDX 24 29 25 30 29 31 26 32 28 33 27 34 30 35 31 36 34 37 32 38
REMARK SMILES IDX 33 39 35 40 36 41 37 42
REMARK H PARENT 4 15 23 28
REMARK Flexibility Score:   91.800
ROOT
ATOM      1  C   UNL     1      31.603  15.985  -3.428  1.00  0.00     0.125 A
ATOM      2  C   UNL     1      31.336  15.032  -2.440  1.00  0.00     0.049 A
ATOM      3  C   UNL     1      32.261  14.021  -2.165  1.00  0.00     0.030 A
ATOM      4  C   UNL     1      33.454  13.940  -2.885  1.00  0.00     0.042 A
ATOM      5  C   UNL     1      33.729  14.942  -3.829  1.00  0.00     0.036 A
ATOM      6  C   UNL     1      32.836  15.995  -4.092  1.00  0.00     0.022 A
ENDROOT
BRANCH   6   7
ATOM      7  C   UNL     1      33.277  17.084  -5.041  1.00  0.00     0.200 C
BRANCH   7   8
ATOM      8  O   UNL     1      32.561  17.065  -6.285  1.00  0.00    -0.373 OA
BRANCH   8   9
ATOM      9  C   UNL     1      32.069  18.365  -6.607  1.00  0.00     0.188 C
BRANCH   9  10
ATOM     10  C   UNL     1      32.998  19.429  -6.132  1.00  0.00     0.004 C
ATOM     11  C   UNL     1      32.641  20.614  -5.581  1.00  0.00    -0.033 C
ATOM     12  G   UNL     1      33.683  21.637  -5.139  1.00  0.00     0.000 C
BRANCH  11  13
ATOM     13  C   UNL     1      31.221  21.110  -5.304  1.00  0.00     0.114 C
BRANCH  13  14
ATOM     14  N   UNL     1      30.623  21.988  -6.307  1.00  0.00    -0.311 NA
ATOM     15  H   UNL     1      30.688  22.956  -5.985  1.00  0.00     0.123 HD
BRANCH  14  16
ATOM     16  C   UNL     1      29.202  21.701  -6.534  1.00  0.00     0.100 C
ATOM     17  G   UNL     1      28.924  20.175  -6.670  1.00  0.00     0.000 C
ENDBRANCH  14  16
ENDBRANCH  13  14
ENDBRANCH  11  13
ENDBRANCH   9  10
ENDBRANCH   8   9
ENDBRANCH   7   8
ENDBRANCH   6   7
BRANCH   1  18
ATOM     18  O   UNL     1      30.586  16.864  -3.717  1.00  0.00    -0.492 OA
BRANCH  18  19
ATOM     19  C   UNL     1      29.420  16.138  -4.152  1.00  0.00     0.245 C
BRANCH  19  20
ATOM     20  C   UNL     1      29.238  16.226  -5.672  1.00  0.00     0.126 C
BRANCH  20  21
ATOM     21  N   UNL     1      27.906  15.733  -6.108  1.00  0.00    -0.296 NA
ATOM     22  C   UNL     1      27.007  16.870  -6.380  1.00  0.00     0.085 C
ATOM     23  C   UNL     1      27.988  14.950  -7.379  1.00  0.00     0.070 C
ATOM     24  C   UNL     1      27.168  17.167  -7.855  1.00  0.00     0.017 C
ATOM     25  C   UNL     1      27.257  15.778  -8.448  1.00  0.00     0.022 C
ATOM     26  G   UNL     1      27.358  13.531  -7.273  1.00  0.00     0.000 C
ENDBRANCH  20  21
ENDBRANCH  19  20
ENDBRANCH  18  19
ENDBRANCH   1  18
BRANCH   4  27
ATOM     27  N   UNL     1      34.296  12.833  -2.734  1.00  0.00    -0.324 N
ATOM     28  H   UNL     1      35.289  12.976  -2.669  1.00  0.00     0.170 HD
BRANCH  27  29
ATOM     29  C   UNL     1      33.936  11.490  -2.657  1.00  0.00     0.227 A
ATOM     30  N   UNL     1      34.657  10.695  -1.853  1.00  0.00    -0.221 NA
ATOM     31  N   UNL     1      32.869  11.063  -3.341  1.00  0.00    -0.212 NA
ATOM     32  C   UNL     1      34.305   9.393  -1.811  1.00  0.00     0.117 A
ATOM     33  C   UNL     1      32.541   9.764  -3.262  1.00  0.00     0.086 A
ATOM     34  C   UNL     1      33.246   8.861  -2.507  1.00  0.00     0.050 A
BRANCH  33  35
ATOM     35  C   UNL     1      31.330   9.432  -4.002  1.00  0.00     0.053 A
ATOM     36  C   UNL     1      30.930   8.188  -4.451  1.00  0.00     0.022 A
ATOM     37  S   UNL     1      30.150  10.623  -4.336  1.00  0.00    -0.136 S
ATOM     38  C   UNL     1      29.636   8.211  -5.041  1.00  0.00     0.018 A
ATOM     39  C   UNL     1      29.061   9.466  -4.986  1.00  0.00     0.031 A
BRANCH  39  40
ATOM     40  C   UNL     1      27.682   9.871  -5.398  1.00  0.00     0.207 C
BRANCH  40  41
ATOM     41  O   UNL     1      27.648  10.040  -6.817  1.00  0.00    -0.372 OA
BRANCH  41  42
ATOM     42  C   UNL     1      26.828   9.097  -7.508  1.00  0.00     0.193 C
ATOM     43  G   UNL     1      27.622   7.975  -8.171  1.00  0.00     0.000 C
ENDBRANCH  41  42
ENDBRANCH  40  41
ENDBRANCH  39  40
ENDBRANCH  33  35
ENDBRANCH  27  29
ENDBRANCH   4  27
TORSDOF 0
ENDMDL
MODEL 4
REMARK VINA RESULT:      -7.4      2.766      8.606
REMARK SMILES C1=C2\CNC[C@H]3CCCN3CCOc3ccc(cc3COC/1)Nc1nccc(n1)-c1ccc(s1)COC2
REMARK SMILES IDX 14 1 15 2 16 3 17 4 18 5 19 6 20 7 21 8 22 9 1 10 2 11 3 13
REMARK SMILES IDX 4 14 5 16 13 18 12 19 11 20 10 21 9 22 6 23 8 24 7 25 23 27
REMARK SMILES IDX 24 29 25 30 29 31 26 32 28 33 27 34 30 35 31 36 34 37 32 38
REMARK SMILES IDX 33 39 35 40 36 41 37 42
REMARK H PARENT 4 15 23 28
REMARK Flexibility Score:   91.800
ROOT
ATOM      1  C   UNL     1      31.089  14.606  -4.141  1.00  0.00     0.125 A
ATOM      2  C   UNL     1      30.812  15.244  -5.354  1.00  0.00     0.049 A
ATOM      3  C   UNL     1      31.642  16.267  -5.820  1.00  0.00     0.030 A
ATOM      4  C   UNL     1      32.748  16.676  -5.072  1.00  0.00     0.042 A
ATOM      5  C   UNL     1      33.042  15.982  -3.888  1.00  0.00     0.036 A
ATOM      6  C   UNL     1      32.250  14.919  -3.422  1.00  0.00     0.022 A
ENDROOT
BRANCH   6   7
ATOM      7  C   UNL     1      32.718  14.163  -2.200  1.00  0.00     0.200 C
BRANCH   7   8
ATOM      8  O   UNL     1      34.037  13.618  -2.351  1.00  0.00    -0.373 OA
BRANCH   8   9
ATOM      9  C   UNL     1      34.039  12.549  -3.296  1.00  0.00     0.188 C
BRANCH   9  10
ATOM     10  C   UNL     1      34.156  11.226  -2.617  1.00  0.00     0.004 C
ATOM     11  C   UNL     1      33.285  10.194  -2.724  1.00  0.00    -0.033 C
ATOM     12  G   UNL     1      33.501   8.885  -1.972  1.00  0.00     0.000 C
BRANCH  11  13
ATOM     13  C   UNL     1      32.015  10.145  -3.575  1.00  0.00     0.114 C
BRANCH  13  14
ATOM     14  N   UNL     1      31.127   9.004  -3.365  1.00  0.00    -0.311 NA
ATOM     15  H   UNL     1      31.634   8.273  -2.861  1.00  0.00     0.123 HD
BRANCH  14  16
ATOM     16  C   UNL     1      30.657   8.415  -4.625  1.00  0.00     0.100 C
ATOM     17  G   UNL     1      30.490   6.871  -4.526  1.00  0.00     0.000 C
ENDBRANCH  14  16
ENDBRANCH  13  14
ENDBRANCH  11  13
ENDBRANCH   9  10
ENDBRANCH   8   9
ENDBRANCH   7   8
ENDBRANCH   6   7
BRANCH   1  18
ATOM     18  O   UNL     1      30.152  13.701  -3.701  1.00  0.00    -0.492 OA
BRANCH  18  19
ATOM     19  C   UNL     1      29.219  13.408  -4.759  1.00  0.00     0.245 C
BRANCH  19  20
ATOM     20  C   UNL     1      29.183  11.909  -5.078  1.00  0.00     0.126 C
BRANCH  20  21
ATOM     21  N   UNL     1      27.797  11.405  -5.252  1.00  0.00    -0.296 NA
ATOM     22  C   UNL     1      26.959  12.433  -5.897  1.00  0.00     0.085 C
ATOM     23  C   UNL     1      27.746  10.204  -6.141  1.00  0.00     0.070 C
ATOM     24  C   UNL     1      27.045  12.149  -7.381  1.00  0.00     0.017 C
ATOM     25  C   UNL     1      27.004  10.637  -7.416  1.00  0.00     0.022 C
ATOM     26  G   UNL     1      27.032   8.983  -5.491  1.00  0.00     0.000 C
ENDBRANCH  20  21
ENDBRANCH  19  20
ENDBRANCH  18  19
ENDBRANCH   1  18
BRANCH   4  27
ATOM     27  N   UNL     1      33.474  17.811  -5.449  1.00  0.00    -0.324 N
ATOM     28  H   UNL     1      34.455  17.723  -5.651  1.00  0.00     0.170 HD
BRANCH  27  29
ATOM     29  C   UNL     1      33.007  19.115  -5.590  1.00  0.00     0.227 A
ATOM     30  N   UNL     1      33.905  20.109  -5.533  1.00  0.00    -0.221 NA
ATOM     31  N   UNL     1      31.706  19.320  -5.823  1.00  0.00    -0.212 NA
ATOM     32  C   UNL     1      33.430  21.367  -5.650  1.00  0.00     0.117 A
ATOM     33  C   UNL     1      31.273  20.584  -5.948  1.00  0.00     0.086 A
ATOM     34  C   UNL     1      32.105  21.671  -5.855  1.00  0.00     0.050 A
BRANCH  33  35
ATOM     35  C   UNL     1      29.851  20.675  -6.257  1.00  0.00     0.053 A
ATOM     36  C   UNL     1      29.133  21.805  -6.596  1.00  0.00     0.022 A
ATOM     37  S   UNL     1      28.875  19.273  -6.323  1.00  0.00    -0.136 S
ATOM     38  C   UNL     1      27.785  21.510  -6.942  1.00  0.00     0.018 A
ATOM     39  C   UNL     1      27.521  20.155  -6.903  1.00  0.00     0.031 A
BRANCH  39  40
ATOM     40  C   UNL     1      26.267  19.443  -7.300  1.00  0.00     0.207 C
BRANCH  40  41
ATOM     41  O   UNL     1      26.554  18.559  -8.386  1.00  0.00    -0.372 OA
BRANCH  41  42
ATOM     42  C   UNL     1      25.919  17.284  -8.297  1.00  0.00     0.193 C
ATOM     43  G   UNL     1      26.069  16.443  -9.561  1.00  0.00     0.000 C
ENDBRANCH  41  42
ENDBRANCH  40  41
ENDBRANCH  39  40
ENDBRANCH  33  35
ENDBRANCH  27  29
ENDBRANCH   4  27
TORSDOF 0
ENDMDL
MODEL 5
REMARK VINA RESULT:      -7.4      2.610      9.585
REMARK SMILES C1=C2\CNC[C@H]3CCCN3CCOc3ccc(cc3COC/1)Nc1nccc(n1)-c1ccc(s1)COC2
REMARK SMILES IDX 14 1 15 2 16 3 17 4 18 5 19 6 20 7 21 8 22 9 1 10 2 11 3 13
REMARK SMILES IDX 4 14 5 16 13 18 12 19 11 20 10 21 9 22 6 23 8 24 7 25 23 27
REMARK SMILES IDX 24 29 25 30 29 31 26 32 28 33 27 34 30 35 31 36 34 37 32 38
REMARK SMILES IDX 33 39 35 40 36 41 37 42
REMARK H PARENT 4 15 23 28
REMARK Flexibility Score:   91.800
ROOT
ATOM      1  C   UNL     1      28.536  12.258  -4.998  1.00  0.00     0.125 A
ATOM      2  C   UNL     1      27.396  12.606  -5.729  1.00  0.00     0.049 A
ATOM      3  C   UNL     1      26.922  13.921  -5.714  1.00  0.00     0.030 A
ATOM      4  C   UNL     1      27.571  14.898  -4.957  1.00  0.00     0.042 A
ATOM      5  C   UNL     1      28.748  14.541  -4.281  1.00  0.00     0.036 A
ATOM      6  C   UNL     1      29.271  13.237  -4.317  1.00  0.00     0.022 A
ENDROOT
BRANCH   6   7
ATOM      7  C   UNL     1      30.604  12.984  -3.651  1.00  0.00     0.200 C
BRANCH   7   8
ATOM      8  O   UNL     1      31.719  13.349  -4.478  1.00  0.00    -0.373 OA
BRANCH   8   9
ATOM      9  C   UNL     1      32.454  12.194  -4.878  1.00  0.00     0.188 C
BRANCH   9  10
ATOM     10  C   UNL     1      32.226  11.056  -3.941  1.00  0.00     0.004 C
ATOM     11  C   UNL     1      33.137  10.530  -3.088  1.00  0.00    -0.033 C
ATOM     12  G   UNL     1      32.795   9.353  -2.180  1.00  0.00     0.000 C
BRANCH  11  13
ATOM     13  C   UNL     1      34.579  10.994  -2.879  1.00  0.00     0.114 C
BRANCH  13  14
ATOM     14  N   UNL     1      34.771  12.391  -2.497  1.00  0.00    -0.311 NA
ATOM     15  H   UNL     1      35.236  12.887  -3.260  1.00  0.00     0.123 HD
BRANCH  14  16
ATOM     16  C   UNL     1      35.615  12.540  -1.305  1.00  0.00     0.100 C
ATOM     17  G   UNL     1      36.203  11.180  -0.827  1.00  0.00     0.000 C
ENDBRANCH  14  16
ENDBRANCH  13  14
ENDBRANCH  11  13
ENDBRANCH   9  10
ENDBRANCH   8   9
ENDBRANCH   7   8
ENDBRANCH   6   7
BRANCH   1  18
ATOM     18  O   UNL     1      28.856  10.921  -4.969  1.00  0.00    -0.492 OA
BRANCH  18  19
ATOM     19  C   UNL     1      27.700  10.134  -5.315  1.00  0.00     0.245 C
BRANCH  19  20
ATOM     20  C   UNL     1      28.093   8.864  -6.079  1.00  0.00     0.126 C
BRANCH  20  21
ATOM     21  N   UNL     1      27.400   7.657  -5.559  1.00  0.00    -0.296 NA
ATOM     22  C   UNL     1      25.973   7.692  -5.928  1.00  0.00     0.085 C
ATOM     23  C   UNL     1      27.954   6.398  -6.144  1.00  0.00     0.070 C
ATOM     24  C   UNL     1      25.879   6.945  -7.241  1.00  0.00     0.017 C
ATOM     25  C   UNL     1      26.844   5.801  -7.024  1.00  0.00     0.022 C
ATOM     26  G   UNL     1      28.405   5.364  -5.071  1.00  0.00     0.000 C
ENDBRANCH  20  21
ENDBRANCH  19  20
ENDBRANCH  18  19
ENDBRANCH   1  18
BRANCH   4  27
ATOM     27  N   UNL     1      27.000  16.166  -4.803  1.00  0.00    -0.324 N
ATOM     28  H   UNL     1      26.472  16.370  -3.972  1.00  0.00     0.170 HD
BRANCH  27  29
ATOM     29  C   UNL     1      27.059  17.242  -5.684  1.00  0.00     0.227 A
ATOM     30  N   UNL     1      25.997  17.462  -6.473  1.00  0.00    -0.221 NA
ATOM     31  N   UNL     1      28.137  18.034  -5.673  1.00  0.00    -0.212 NA
ATOM     32  C   UNL     1      26.084  18.497  -7.335  1.00  0.00     0.117 A
ATOM     33  C   UNL     1      28.180  19.062  -6.535  1.00  0.00     0.086 A
ATOM     34  C   UNL     1      27.167  19.340  -7.417  1.00  0.00     0.050 A
BRANCH  33  35
ATOM     35  C   UNL     1      29.376  19.883  -6.389  1.00  0.00     0.053 A
ATOM     36  C   UNL     1      29.452  21.262  -6.345  1.00  0.00     0.022 A
ATOM     37  S   UNL     1      30.909  19.167  -6.147  1.00  0.00    -0.136 S
ATOM     38  C   UNL     1      30.770  21.726  -6.080  1.00  0.00     0.018 A
ATOM     39  C   UNL     1      31.659  20.688  -5.882  1.00  0.00     0.031 A
BRANCH  39  40
ATOM     40  C   UNL     1      33.097  20.764  -5.478  1.00  0.00     0.207 C
BRANCH  40  41
ATOM     41  O   UNL     1      33.651  19.446  -5.473  1.00  0.00    -0.372 OA
BRANCH  41  42
ATOM     42  C   UNL     1      34.297  19.070  -6.689  1.00  0.00     0.193 C
ATOM     43  G   UNL     1      34.147  17.588  -7.021  1.00  0.00     0.000 C
ENDBRANCH  41  42
ENDBRANCH  40  41
ENDBRANCH  39  40
ENDBRANCH  33  35
ENDBRANCH  27  29
ENDBRANCH   4  27
TORSDOF 0
ENDMDL
MODEL 6
REMARK VINA RESULT:      -7.3      1.814      5.290
REMARK SMILES C1=C2\CNC[C@H]3CCCN3CCOc3ccc(cc3COC/1)Nc1nccc(n1)-c1ccc(s1)COC2
REMARK SMILES IDX 14 1 15 2 16 3 17 4 18 5 19 6 20 7 21 8 22 9 1 10 2 11 3 13
REMARK SMILES IDX 4 14 5 16 13 18 12 19 11 20 10 21 9 22 6 23 8 24 7 25 23 27
REMARK SMILES IDX 24 29 25 30 29 31 26 32 28 33 27 34 30 35 31 36 34 37 32 38
REMARK SMILES IDX 33 39 35 40 36 41 37 42
REMARK H PARENT 4 15 23 28
REMARK Flexibility Score:   91.800
ROOT
ATOM      1  C   UNL     1      32.322  15.709  -4.240  1.00  0.00     0.125 A
ATOM      2  C   UNL     1      33.543  15.937  -3.598  1.00  0.00     0.049 A
ATOM      3  C   UNL     1      34.275  14.869  -3.073  1.00  0.00     0.030 A
ATOM      4  C   UNL     1      33.788  13.564  -3.167  1.00  0.00     0.042 A
ATOM      5  C   UNL     1      32.591  13.351  -3.869  1.00  0.00     0.036 A
ATOM      6  C   UNL     1      31.860  14.403  -4.446  1.00  0.00     0.022 A
ENDROOT
BRANCH   6   7
ATOM      7  C   UNL     1      30.647  14.056  -5.278  1.00  0.00     0.200 C
BRANCH   7   8
ATOM      8  O   UNL     1      29.806  13.071  -4.658  1.00  0.00    -0.373 OA
BRANCH   8   9
ATOM      9  C   UNL     1      28.439  13.278  -5.008  1.00  0.00     0.188 C
BRANCH   9  10
ATOM     10  C   UNL     1      28.167  14.714  -5.304  1.00  0.00     0.004 C
ATOM     11  C   UNL     1      26.967  15.335  -5.213  1.00  0.00    -0.033 C
ATOM     12  G   UNL     1      26.803  16.813  -5.553  1.00  0.00     0.000 C
BRANCH  11  13
ATOM     13  C   UNL     1      25.641  14.715  -4.767  1.00  0.00     0.114 C
BRANCH  13  14
ATOM     14  N   UNL     1      25.164  13.564  -5.530  1.00  0.00    -0.311 NA
ATOM     15  H   UNL     1      25.849  12.809  -5.462  1.00  0.00     0.123 HD
BRANCH  14  16
ATOM     16  C   UNL     1      24.992  13.866  -6.957  1.00  0.00     0.100 C
ATOM     17  G   UNL     1      25.908  12.988  -7.858  1.00  0.00     0.000 C
ENDBRANCH  14  16
ENDBRANCH  13  14
ENDBRANCH  11  13
ENDBRANCH   9  10
ENDBRANCH   8   9
ENDBRANCH   7   8
ENDBRANCH   6   7
BRANCH   1  18
ATOM     18  O   UNL     1      31.612  16.826  -4.613  1.00  0.00    -0.492 OA
BRANCH  18  19
ATOM     19  C   UNL     1      32.028  17.255  -5.924  1.00  0.00     0.245 C
BRANCH  19  20
ATOM     20  C   UNL     1      32.013  18.784  -6.045  1.00  0.00     0.126 C
BRANCH  20  21
ATOM     21  N   UNL     1      30.772  19.380  -5.489  1.00  0.00    -0.296 NA
ATOM     22  C   UNL     1      31.104  20.325  -4.406  1.00  0.00     0.085 C
ATOM     23  C   UNL     1      30.019  20.165  -6.515  1.00  0.00     0.070 C
ATOM     24  C   UNL     1      31.224  21.677  -5.076  1.00  0.00     0.017 C
ATOM     25  C   UNL     1      30.091  21.636  -6.077  1.00  0.00     0.022 C
ATOM     26  G   UNL     1      28.535  19.720  -6.666  1.00  0.00     0.000 C
ENDBRANCH  20  21
ENDBRANCH  19  20
ENDBRANCH  18  19
ENDBRANCH   1  18
BRANCH   4  27
ATOM     27  N   UNL     1      34.431  12.521  -2.492  1.00  0.00    -0.324 N
ATOM     28  H   UNL     1      35.261  12.717  -1.959  1.00  0.00     0.170 HD
BRANCH  27  29
ATOM     29  C   UNL     1      34.066  11.178  -2.451  1.00  0.00     0.227 A
ATOM     30  N   UNL     1      34.782  10.360  -1.665  1.00  0.00    -0.221 NA
ATOM     31  N   UNL     1      33.000  10.771  -3.148  1.00  0.00    -0.212 NA
ATOM     32  C   UNL     1      34.427   9.059  -1.656  1.00  0.00     0.117 A
ATOM     33  C   UNL     1      32.669   9.471  -3.103  1.00  0.00     0.086 A
ATOM     34  C   UNL     1      33.368   8.547  -2.369  1.00  0.00     0.050 A
BRANCH  33  35
ATOM     35  C   UNL     1      31.459   9.162  -3.856  1.00  0.00     0.053 A
ATOM     36  C   UNL     1      30.610  10.048  -4.490  1.00  0.00     0.022 A
ATOM     37  S   UNL     1      30.984   7.542  -4.127  1.00  0.00    -0.136 S
ATOM     38  C   UNL     1      29.586   9.390  -5.225  1.00  0.00     0.018 A
ATOM     39  C   UNL     1      29.707   8.016  -5.172  1.00  0.00     0.031 A
BRANCH  39  40
ATOM     40  C   UNL     1      28.898   6.986  -5.896  1.00  0.00     0.207 C
BRANCH  40  41
ATOM     41  O   UNL     1      27.554   7.455  -6.028  1.00  0.00    -0.372 OA
BRANCH  41  42
ATOM     42  C   UNL     1      27.085   7.540  -7.373  1.00  0.00     0.193 C
ATOM     43  G   UNL     1      26.938   8.973  -7.874  1.00  0.00     0.000 C
ENDBRANCH  41  42
ENDBRANCH  40  41
ENDBRANCH  39  40
ENDBRANCH  33  35
ENDBRANCH  27  29
ENDBRANCH   4  27
TORSDOF 0
ENDMDL
MODEL 7
REMARK VINA RESULT:      -7.3      1.792      5.444
REMARK SMILES C1=C2\CNC[C@H]3CCCN3CCOc3ccc(cc3COC/1)Nc1nccc(n1)-c1ccc(s1)COC2
REMARK SMILES IDX 14 1 15 2 16 3 17 4 18 5 19 6 20 7 21 8 22 9 1 10 2 11 3 13
REMARK SMILES IDX 4 14 5 16 13 18 12 19 11 20 10 21 9 22 6 23 8 24 7 25 23 27
REMARK SMILES IDX 24 29 25 30 29 31 26 32 28 33 27 34 30 35 31 36 34 37 32 38
REMARK SMILES IDX 33 39 35 40 36 41 37 42
REMARK H PARENT 4 15 23 28
REMARK Flexibility Score:   91.800
ROOT
ATOM      1  C   UNL     1      32.507  15.694  -4.177  1.00  0.00     0.125 A
ATOM      2  C   UNL     1      33.558  15.621  -3.258  1.00  0.00     0.049 A
ATOM      3  C   UNL     1      34.079  14.381  -2.878  1.00  0.00     0.030 A
ATOM      4  C   UNL     1      33.545  13.200  -3.399  1.00  0.00     0.042 A
ATOM      5  C   UNL     1      32.532  13.299  -4.365  1.00  0.00     0.036 A
ATOM      6  C   UNL     1      32.023  14.536  -4.798  1.00  0.00     0.022 A
ENDROOT
BRANCH   6   7
ATOM      7  C   UNL     1      31.017  14.538  -5.925  1.00  0.00     0.200 C
BRANCH   7   8
ATOM      8  O   UNL     1      29.739  15.062  -5.533  1.00  0.00    -0.373 OA
BRANCH   8   9
ATOM      9  C   UNL     1      29.107  14.203  -4.586  1.00  0.00     0.188 C
BRANCH   9  10
ATOM     10  C   UNL     1      27.626  14.378  -4.599  1.00  0.00     0.004 C
ATOM     11  C   UNL     1      26.776  13.913  -5.545  1.00  0.00    -0.033 C
ATOM     12  G   UNL     1      25.273  14.162  -5.462  1.00  0.00     0.000 C
BRANCH  11  13
ATOM     13  C   UNL     1      27.137  13.091  -6.784  1.00  0.00     0.114 C
BRANCH  13  14
ATOM     14  N   UNL     1      27.941  13.760  -7.804  1.00  0.00    -0.311 NA
ATOM     15  H   UNL     1      28.566  14.431  -7.352  1.00  0.00     0.123 HD
BRANCH  14  16
ATOM     16  C   UNL     1      27.123  14.509  -8.767  1.00  0.00     0.100 C
ATOM     17  G   UNL     1      27.671  15.945  -9.013  1.00  0.00     0.000 C
ENDBRANCH  14  16
ENDBRANCH  13  14
ENDBRANCH  11  13
ENDBRANCH   9  10
ENDBRANCH   8   9
ENDBRANCH   7   8
ENDBRANCH   6   7
BRANCH   1  18
ATOM     18  O   UNL     1      31.976  16.943  -4.395  1.00  0.00    -0.492 OA
BRANCH  18  19
ATOM     19  C   UNL     1      32.715  17.615  -5.434  1.00  0.00     0.245 C
BRANCH  19  20
ATOM     20  C   UNL     1      32.511  19.133  -5.377  1.00  0.00     0.126 C
BRANCH  20  21
ATOM     21  N   UNL     1      31.157  19.501  -4.888  1.00  0.00    -0.296 NA
ATOM     22  C   UNL     1      31.122  20.927  -4.513  1.00  0.00     0.085 C
ATOM     23  C   UNL     1      30.112  19.318  -5.942  1.00  0.00     0.070 C
ATOM     24  C   UNL     1      30.662  21.658  -5.756  1.00  0.00     0.017 C
ATOM     25  C   UNL     1      29.603  20.724  -6.298  1.00  0.00     0.022 C
ATOM     26  G   UNL     1      28.928  18.415  -5.488  1.00  0.00     0.000 C
ENDBRANCH  20  21
ENDBRANCH  19  20
ENDBRANCH  18  19
ENDBRANCH   1  18
BRANCH   4  27
ATOM     27  N   UNL     1      33.945  11.960  -2.890  1.00  0.00    -0.324 N
ATOM     28  H   UNL     1      34.826  11.887  -2.410  1.00  0.00     0.170 HD
BRANCH  27  29
ATOM     29  C   UNL     1      33.263  10.748  -2.958  1.00  0.00     0.227 A
ATOM     30  N   UNL     1      33.789   9.698  -2.311  1.00  0.00    -0.221 NA
ATOM     31  N   UNL     1      32.099  10.693  -3.615  1.00  0.00    -0.212 NA
ATOM     32  C   UNL     1      33.124   8.528  -2.408  1.00  0.00     0.117 A
ATOM     33  C   UNL     1      31.460   9.515  -3.677  1.00  0.00     0.086 A
ATOM     34  C   UNL     1      31.942   8.371  -3.091  1.00  0.00     0.050 A
BRANCH  33  35
ATOM     35  C   UNL     1      30.179   9.593  -4.369  1.00  0.00     0.053 A
ATOM     36  C   UNL     1      29.274  10.637  -4.352  1.00  0.00     0.022 A
ATOM     37  S   UNL     1      29.671   8.347  -5.422  1.00  0.00    -0.136 S
ATOM     38  C   UNL     1      28.178  10.422  -5.232  1.00  0.00     0.018 A
ATOM     39  C   UNL     1      28.297   9.240  -5.935  1.00  0.00     0.031 A
BRANCH  39  40
ATOM     40  C   UNL     1      27.416   8.715  -7.023  1.00  0.00     0.207 C
BRANCH  40  41
ATOM     41  O   UNL     1      26.836   7.479  -6.600  1.00  0.00    -0.372 OA
BRANCH  41  42
ATOM     42  C   UNL     1      25.525   7.233  -7.110  1.00  0.00     0.193 C
ATOM     43  G   UNL     1      25.057   5.795  -6.909  1.00  0.00     0.000 C
ENDBRANCH  41  42
ENDBRANCH  40  41
ENDBRANCH  39  40
ENDBRANCH  33  35
ENDBRANCH  27  29
ENDBRANCH   4  27
TORSDOF 0
ENDMDL
MODEL 8
REMARK VINA RESULT:      -7.2      1.737      5.417
REMARK SMILES C1=C2\CNC[C@H]3CCCN3CCOc3ccc(cc3COC/1)Nc1nccc(n1)-c1ccc(s1)COC2
REMARK SMILES IDX 14 1 15 2 16 3 17 4 18 5 19 6 20 7 21 8 22 9 1 10 2 11 3 13
REMARK SMILES IDX 4 14 5 16 13 18 12 19 11 20 10 21 9 22 6 23 8 24 7 25 23 27
REMARK SMILES IDX 24 29 25 30 29 31 26 32 28 33 27 34 30 35 31 36 34 37 32 38
REMARK SMILES IDX 33 39 35 40 36 41 37 42
REMARK H PARENT 4 15 23 28
REMARK Flexibility Score:   91.800
ROOT
ATOM      1  C   UNL     1      32.610  15.683  -4.016  1.00  0.00     0.125 A
ATOM      2  C   UNL     1      33.669  15.505  -3.121  1.00  0.00     0.049 A
ATOM      3  C   UNL     1      34.125  14.221  -2.811  1.00  0.00     0.030 A
ATOM      4  C   UNL     1      33.516  13.099  -3.379  1.00  0.00     0.042 A
ATOM      5  C   UNL     1      32.496  13.303  -4.321  1.00  0.00     0.036 A
ATOM      6  C   UNL     1      32.052  14.586  -4.684  1.00  0.00     0.022 A
ENDROOT
BRANCH   6   7
ATOM      7  C   UNL     1      31.030  14.700  -5.791  1.00  0.00     0.200 C
BRANCH   7   8
ATOM      8  O   UNL     1      29.831  13.957  -5.525  1.00  0.00    -0.373 OA
BRANCH   8   9
ATOM      9  C   UNL     1      28.826  14.799  -4.964  1.00  0.00     0.188 C
BRANCH   9  10
ATOM     10  C   UNL     1      27.509  14.590  -5.633  1.00  0.00     0.004 C
ATOM     11  C   UNL     1      27.176  14.993  -6.882  1.00  0.00    -0.033 C
ATOM     12  G   UNL     1      25.788  14.733  -7.461  1.00  0.00     0.000 C
BRANCH  11  13
ATOM     13  C   UNL     1      28.071  15.722  -7.885  1.00  0.00     0.114 C
BRANCH  13  14
ATOM     14  N   UNL     1      28.079  17.181  -7.820  1.00  0.00    -0.311 NA
ATOM     15  H   UNL     1      29.043  17.508  -7.733  1.00  0.00     0.123 HD
BRANCH  14  16
ATOM     16  C   UNL     1      27.339  17.698  -6.662  1.00  0.00     0.100 C
ATOM     17  G   UNL     1      27.626  19.207  -6.407  1.00  0.00     0.000 C
ENDBRANCH  14  16
ENDBRANCH  13  14
ENDBRANCH  11  13
ENDBRANCH   9  10
ENDBRANCH   8   9
ENDBRANCH   7   8
ENDBRANCH   6   7
BRANCH   1  18
ATOM     18  O   UNL     1      32.148  16.969  -4.164  1.00  0.00    -0.492 OA
BRANCH  18  19
ATOM     19  C   UNL     1      32.578  17.502  -5.432  1.00  0.00     0.245 C
BRANCH  19  20
ATOM     20  C   UNL     1      31.491  18.369  -6.076  1.00  0.00     0.126 C
BRANCH  20  21
ATOM     21  N   UNL     1      31.992  19.718  -6.444  1.00  0.00    -0.296 NA
ATOM     22  C   UNL     1      31.011  20.748  -6.058  1.00  0.00     0.085 C
ATOM     23  C   UNL     1      33.261  20.058  -5.729  1.00  0.00     0.070 C
ATOM     24  C   UNL     1      31.416  21.188  -4.667  1.00  0.00     0.017 C
ATOM     25  C   UNL     1      32.924  21.211  -4.769  1.00  0.00     0.022 C
ATOM     26  G   UNL     1      34.417  20.474  -6.685  1.00  0.00     0.000 C
ENDBRANCH  20  21
ENDBRANCH  19  20
ENDBRANCH  18  19
ENDBRANCH   1  18
BRANCH   4  27
ATOM     27  N   UNL     1      33.853  11.815  -2.938  1.00  0.00    -0.324 N
ATOM     28  H   UNL     1      34.730  11.671  -2.467  1.00  0.00     0.170 HD
BRANCH  27  29
ATOM     29  C   UNL     1      33.109  10.645  -3.066  1.00  0.00     0.227 A
ATOM     30  N   UNL     1      33.577   9.539  -2.470  1.00  0.00    -0.221 NA
ATOM     31  N   UNL     1      31.948  10.682  -3.729  1.00  0.00    -0.212 NA
ATOM     32  C   UNL     1      32.852   8.411  -2.626  1.00  0.00     0.117 A
ATOM     33  C   UNL     1      31.248   9.544  -3.850  1.00  0.00     0.086 A
ATOM     34  C   UNL     1      31.667   8.350  -3.319  1.00  0.00     0.050 A
BRANCH  33  35
ATOM     35  C   UNL     1      29.976   9.723  -4.540  1.00  0.00     0.053 A
ATOM     36  C   UNL     1      29.135  10.817  -4.487  1.00  0.00     0.022 A
ATOM     37  S   UNL     1      29.400   8.546  -5.638  1.00  0.00    -0.136 S
ATOM     38  C   UNL     1      28.031  10.699  -5.376  1.00  0.00     0.018 A
ATOM     39  C   UNL     1      28.083   9.537  -6.121  1.00  0.00     0.031 A
BRANCH  39  40
ATOM     40  C   UNL     1      27.176   9.104  -7.228  1.00  0.00     0.207 C
BRANCH  40  41
ATOM     41  O   UNL     1      27.260   7.685  -7.374  1.00  0.00    -0.372 OA
BRANCH  41  42
ATOM     42  C   UNL     1      26.005   7.006  -7.312  1.00  0.00     0.193 C
ATOM     43  G   UNL     1      25.144   7.432  -6.127  1.00  0.00     0.000 C
ENDBRANCH  41  42
ENDBRANCH  40  41
ENDBRANCH  39  40
ENDBRANCH  33  35
ENDBRANCH  27  29
ENDBRANCH   4  27
TORSDOF 0
ENDMDL
MODEL 9
REMARK VINA RESULT:      -7.2      1.857      5.282
REMARK SMILES C1=C2\CNC[C@H]3CCCN3CCOc3ccc(cc3COC/1)Nc1nccc(n1)-c1ccc(s1)COC2
REMARK SMILES IDX 14 1 15 2 16 3 17 4 18 5 19 6 20 7 21 8 22 9 1 10 2 11 3 13
REMARK SMILES IDX 4 14 5 16 13 18 12 19 11 20 10 21 9 22 6 23 8 24 7 25 23 27
REMARK SMILES IDX 24 29 25 30 29 31 26 32 28 33 27 34 30 35 31 36 34 37 32 38
REMARK SMILES IDX 33 39 35 40 36 41 37 42
REMARK H PARENT 4 15 23 28
REMARK Flexibility Score:   91.800
ROOT
ATOM      1  C   UNL     1      32.600  15.707  -4.074  1.00  0.00     0.125 A
ATOM      2  C   UNL     1      33.621  15.510  -3.139  1.00  0.00     0.049 A
ATOM      3  C   UNL     1      34.067  14.220  -2.841  1.00  0.00     0.030 A
ATOM      4  C   UNL     1      33.487  13.110  -3.460  1.00  0.00     0.042 A
ATOM      5  C   UNL     1      32.507  13.334  -4.439  1.00  0.00     0.036 A
ATOM      6  C   UNL     1      32.074  14.624  -4.791  1.00  0.00     0.022 A
ENDROOT
BRANCH   6   7
ATOM      7  C   UNL     1      31.099  14.762  -5.937  1.00  0.00     0.200 C
BRANCH   7   8
ATOM      8  O   UNL     1      29.850  14.098  -5.693  1.00  0.00    -0.373 OA
BRANCH   8   9
ATOM      9  C   UNL     1      29.063  14.828  -4.754  1.00  0.00     0.188 C
BRANCH   9  10
ATOM     10  C   UNL     1      27.650  14.351  -4.745  1.00  0.00     0.004 C
ATOM     11  C   UNL     1      26.718  14.599  -5.696  1.00  0.00    -0.033 C
ATOM     12  G   UNL     1      25.294  14.067  -5.577  1.00  0.00     0.000 C
BRANCH  11  13
ATOM     13  C   UNL     1      26.911  15.392  -6.990  1.00  0.00     0.114 C
BRANCH  13  14
ATOM     14  N   UNL     1      25.792  16.227  -7.421  1.00  0.00    -0.311 NA
ATOM     15  H   UNL     1      24.977  15.634  -7.592  1.00  0.00     0.123 HD
BRANCH  14  16
ATOM     16  C   UNL     1      26.074  16.948  -8.669  1.00  0.00     0.100 C
ATOM     17  G   UNL     1      24.995  16.681  -9.759  1.00  0.00     0.000 C
ENDBRANCH  14  16
ENDBRANCH  13  14
ENDBRANCH  11  13
ENDBRANCH   9  10
ENDBRANCH   8   9
ENDBRANCH   7   8
ENDBRANCH   6   7
BRANCH   1  18
ATOM     18  O   UNL     1      32.140  16.995  -4.212  1.00  0.00    -0.492 OA
BRANCH  18  19
ATOM     19  C   UNL     1      32.879  17.671  -5.247  1.00  0.00     0.245 C
BRANCH  19  20
ATOM     20  C   UNL     1      31.950  18.455  -6.181  1.00  0.00     0.126 C
BRANCH  20  21
ATOM     21  N   UNL     1      30.795  19.046  -5.458  1.00  0.00    -0.296 NA
ATOM     22  C   UNL     1      31.229  20.222  -4.682  1.00  0.00     0.085 C
ATOM     23  C   UNL     1      29.737  19.531  -6.397  1.00  0.00     0.070 C
ATOM     24  C   UNL     1      31.019  21.409  -5.597  1.00  0.00     0.017 C
ATOM     25  C   UNL     1      29.708  21.063  -6.268  1.00  0.00     0.022 C
ATOM     26  G   UNL     1      28.328  18.940  -6.099  1.00  0.00     0.000 C
ENDBRANCH  20  21
ENDBRANCH  19  20
ENDBRANCH  18  19
ENDBRANCH   1  18
BRANCH   4  27
ATOM     27  N   UNL     1      33.810  11.817  -3.036  1.00  0.00    -0.324 N
ATOM     28  H   UNL     1      34.693  11.654  -2.584  1.00  0.00     0.170 HD
BRANCH  27  29
ATOM     29  C   UNL     1      33.042  10.662  -3.158  1.00  0.00     0.227 A
ATOM     30  N   UNL     1      33.499   9.544  -2.575  1.00  0.00    -0.221 NA
ATOM     31  N   UNL     1      31.871  10.724  -3.801  1.00  0.00    -0.212 NA
ATOM     32  C   UNL     1      32.751   8.431  -2.724  1.00  0.00     0.117 A
ATOM     33  C   UNL     1      31.148   9.599  -3.916  1.00  0.00     0.086 A
ATOM     34  C   UNL     1      31.554   8.395  -3.398  1.00  0.00     0.050 A
BRANCH  33  35
ATOM     35  C   UNL     1      29.869   9.805  -4.585  1.00  0.00     0.053 A
ATOM     36  C   UNL     1      29.049  10.914  -4.513  1.00  0.00     0.022 A
ATOM     37  S   UNL     1      29.254   8.645  -5.679  1.00  0.00    -0.136 S
ATOM     38  C   UNL     1      27.929  10.821  -5.385  1.00  0.00     0.018 A
ATOM     39  C   UNL     1      27.948   9.662  -6.136  1.00  0.00     0.031 A
BRANCH  39  40
ATOM     40  C   UNL     1      27.015   9.252  -7.230  1.00  0.00     0.207 C
BRANCH  40  41
ATOM     41  O   UNL     1      27.228  10.094  -8.366  1.00  0.00    -0.372 OA
BRANCH  41  42
ATOM     42  C   UNL     1      26.438  11.283  -8.379  1.00  0.00     0.193 C
ATOM     43  G   UNL     1      25.234  11.200  -9.313  1.00  0.00     0.000 C
ENDBRANCH  41  42
ENDBRANCH  40  41
ENDBRANCH  39  40
ENDBRANCH  33  35
ENDBRANCH  27  29
ENDBRANCH   4  27
TORSDOF 0
ENDMDL
