MODEL 1
REMARK VINA RESULT:      -8.8      0.000      0.000
REMARK SMILES N#CC1CN(C(=O)[C@@H]2NC(=O)c3c[nH]c4ncc(nc34)[C@]3(CCCCC[C@]24CC4)CC3)C1
REMARK SMILES IDX 9 1 10 2 11 3 8 5 6 6 1 7 2 8 3 9 4 10 32 11 5 12 7 13 27 14
REMARK SMILES IDX 29 15 28 16 26 17 25 18 24 19 12 21 13 22 20 23 14 24 19 25
REMARK SMILES IDX 15 26 18 27 16 28 17 29 21 31 30 32 31 33 22 34 23 35
REMARK H PARENT 9 4 14 30
REMARK Flexibility Score:   32.900
ROOT
ATOM      1  N   UNL     1      32.362  14.215  -3.615  1.00  0.00    -0.340 N
ATOM      2  C   UNL     1      33.624  14.277  -3.073  1.00  0.00     0.255 C
ATOM      3  O   UNL     1      34.277  15.316  -3.031  1.00  0.00    -0.269 OA
ATOM      4  H   UNL     1      31.893  13.320  -3.658  1.00  0.00     0.164 HD
ENDROOT
BRANCH   1   5
ATOM      5  C   UNL     1      31.747  15.382  -4.225  1.00  0.00     0.178 C
BRANCH   5   6
ATOM      6  C   UNL     1      32.381  15.569  -5.632  1.00  0.00     0.245 C
ATOM      7  N   UNL     1      34.848  20.564  -6.695  1.00  0.00    -0.198 NA
ATOM      8  C   UNL     1      34.018  19.753  -6.681  1.00  0.00     0.069 C
ATOM      9  C   UNL     1      32.974  18.759  -6.669  1.00  0.00     0.131 C
ATOM     10  C   UNL     1      33.380  17.357  -7.154  1.00  0.00     0.140 C
ATOM     11  C   UNL     1      32.674  18.125  -5.296  1.00  0.00     0.140 C
ATOM     12  N   UNL     1      32.691  16.855  -5.983  1.00  0.00    -0.338 N
ATOM     13  O   UNL     1      32.585  14.632  -6.408  1.00  0.00    -0.272 OA
ENDBRANCH   5   6
BRANCH   5  14
ATOM     14  C   UNL     1      30.210  15.206  -4.230  1.00  0.00    -0.000 C
ATOM     15  C   UNL     1      29.614  13.888  -3.736  1.00  0.00     0.010 C
ATOM     16  C   UNL     1      29.572  14.209  -5.195  1.00  0.00     0.010 C
BRANCH  14  17
ATOM     17  C   UNL     1      29.440  16.525  -4.071  1.00  0.00     0.010 C
BRANCH  17  18
ATOM     18  C   UNL     1      28.980  17.204  -5.367  1.00  0.00     0.001 C
BRANCH  18  19
ATOM     19  C   UNL     1      28.949  18.726  -5.236  1.00  0.00     0.000 C
ATOM     20  G   UNL     1      29.374  19.452  -6.510  1.00  0.00     0.000 C
ENDBRANCH  18  19
ENDBRANCH  17  18
ENDBRANCH  14  17
ENDBRANCH   5  14
ENDBRANCH   1   5
BRANCH   2  21
ATOM     21  C   UNL     1      34.151  12.999  -2.626  1.00  0.00     0.085 A
ATOM     22  C   UNL     1      35.307  12.835  -1.872  1.00  0.00     0.100 A
ATOM     23  C   UNL     1      33.633  11.695  -2.844  1.00  0.00     0.120 A
ATOM     24  N   UNL     1      35.527  11.490  -1.696  1.00  0.00    -0.344 N
ATOM     25  N   UNL     1      32.495  11.290  -3.462  1.00  0.00    -0.246 NA
ATOM     26  C   UNL     1      34.519  10.783  -2.286  1.00  0.00     0.156 A
ATOM     27  C   UNL     1      32.287   9.949  -3.474  1.00  0.00     0.066 A
ATOM     28  N   UNL     1      34.401   9.442  -2.312  1.00  0.00    -0.235 NA
ATOM     29  C   UNL     1      33.246   9.077  -2.936  1.00  0.00     0.138 A
ATOM     30  H   UNL     1      36.301  11.067  -1.205  1.00  0.00     0.168 HD
BRANCH  27  31
ATOM     31  C   UNL     1      30.960   9.441  -4.063  1.00  0.00     0.014 C
ATOM     32  C   UNL     1      29.675  10.222  -3.784  1.00  0.00     0.014 C
ATOM     33  C   UNL     1      30.307  10.315  -5.133  1.00  0.00     0.014 C
BRANCH  31  34
ATOM     34  C   UNL     1      30.839   7.921  -4.176  1.00  0.00     0.013 C
BRANCH  34  35
ATOM     35  C   UNL     1      29.951   7.411  -5.322  1.00  0.00     0.001 C
ATOM     36  G   UNL     1      29.494   5.967  -5.130  1.00  0.00     0.000 C
ENDBRANCH  34  35
ENDBRANCH  31  34
ENDBRANCH  27  31
ENDBRANCH   2  21
TORSDOF 1
ENDMDL
MODEL 2
REMARK VINA RESULT:      -8.3      0.827      1.136
REMARK SMILES N#CC1CN(C(=O)[C@@H]2NC(=O)c3c[nH]c4ncc(nc34)[C@]3(CCCCC[C@]24CC4)CC3)C1
REMARK SMILES IDX 9 1 10 2 11 3 8 5 6 6 1 7 2 8 3 9 4 10 32 11 5 12 7 13 27 14
REMARK SMILES IDX 29 15 28 16 26 17 25 18 24 19 12 21 13 22 20 23 14 24 19 25
REMARK SMILES IDX 15 26 18 27 16 28 17 29 21 31 30 32 31 33 22 34 23 35
REMARK H PARENT 9 4 14 30
REMARK Flexibility Score:   32.900
ROOT
ATOM      1  N   UNL     1      32.469  14.291  -3.439  1.00  0.00    -0.340 N
ATOM      2  C   UNL     1      33.756  14.283  -2.956  1.00  0.00     0.255 C
ATOM      3  O   UNL     1      34.450  15.295  -2.902  1.00  0.00    -0.269 OA
ATOM      4  H   UNL     1      31.965  13.416  -3.496  1.00  0.00     0.164 HD
ENDROOT
BRANCH   1   5
ATOM      5  C   UNL     1      31.870  15.504  -3.967  1.00  0.00     0.178 C
BRANCH   5   6
ATOM      6  C   UNL     1      32.352  15.668  -5.437  1.00  0.00     0.245 C
ATOM      7  N   UNL     1      34.879  20.562  -6.785  1.00  0.00    -0.198 NA
ATOM      8  C   UNL     1      34.025  19.784  -6.677  1.00  0.00     0.069 C
ATOM      9  C   UNL     1      32.951  18.832  -6.545  1.00  0.00     0.131 C
ATOM     10  C   UNL     1      33.245  17.415  -7.066  1.00  0.00     0.140 C
ATOM     11  C   UNL     1      32.779  18.210  -5.145  1.00  0.00     0.140 C
ATOM     12  N   UNL     1      32.671  16.940  -5.825  1.00  0.00    -0.338 N
ATOM     13  O   UNL     1      32.432  14.723  -6.227  1.00  0.00    -0.272 OA
ENDBRANCH   5   6
BRANCH   5  14
ATOM     14  C   UNL     1      30.334  15.434  -3.798  1.00  0.00    -0.000 C
ATOM     15  C   UNL     1      29.759  14.868  -2.499  1.00  0.00     0.010 C
ATOM     16  C   UNL     1      29.646  14.071  -3.759  1.00  0.00     0.010 C
BRANCH  14  17
ATOM     17  C   UNL     1      29.578  16.511  -4.589  1.00  0.00     0.010 C
BRANCH  17  18
ATOM     18  C   UNL     1      28.206  16.108  -5.144  1.00  0.00     0.001 C
BRANCH  18  19
ATOM     19  C   UNL     1      28.217  15.990  -6.666  1.00  0.00     0.000 C
ATOM     20  G   UNL     1      28.237  14.546  -7.162  1.00  0.00     0.000 C
ENDBRANCH  18  19
ENDBRANCH  17  18
ENDBRANCH  14  17
ENDBRANCH   5  14
ENDBRANCH   1   5
BRANCH   2  21
ATOM     21  C   UNL     1      34.256  12.969  -2.591  1.00  0.00     0.085 A
ATOM     22  C   UNL     1      35.428  12.730  -1.883  1.00  0.00     0.100 A
ATOM     23  C   UNL     1      33.689  11.693  -2.857  1.00  0.00     0.120 A
ATOM     24  N   UNL     1      35.609  11.372  -1.782  1.00  0.00    -0.344 N
ATOM     25  N   UNL     1      32.519  11.355  -3.457  1.00  0.00    -0.246 NA
ATOM     26  C   UNL     1      34.561  10.727  -2.373  1.00  0.00     0.156 A
ATOM     27  C   UNL     1      32.268  10.024  -3.528  1.00  0.00     0.066 A
ATOM     28  N   UNL     1      34.399   9.394  -2.462  1.00  0.00    -0.235 NA
ATOM     29  C   UNL     1      33.214   9.097  -3.065  1.00  0.00     0.138 A
ATOM     30  H   UNL     1      36.384  10.901  -1.338  1.00  0.00     0.168 HD
BRANCH  27  31
ATOM     31  C   UNL     1      30.908   9.588  -4.098  1.00  0.00     0.014 C
ATOM     32  C   UNL     1      29.661  10.405  -3.757  1.00  0.00     0.014 C
ATOM     33  C   UNL     1      30.260  10.525  -5.118  1.00  0.00     0.014 C
BRANCH  31  34
ATOM     34  C   UNL     1      30.726   8.079  -4.262  1.00  0.00     0.013 C
BRANCH  34  35
ATOM     35  C   UNL     1      29.769   7.645  -5.384  1.00  0.00     0.001 C
ATOM     36  G   UNL     1      29.600   6.131  -5.477  1.00  0.00     0.000 C
ENDBRANCH  34  35
ENDBRANCH  31  34
ENDBRANCH  27  31
ENDBRANCH   2  21
TORSDOF 1
ENDMDL
MODEL 3
REMARK VINA RESULT:      -8.2      3.632      9.059
REMARK SMILES N#CC1CN(C(=O)[C@@H]2NC(=O)c3c[nH]c4ncc(nc34)[C@]3(CCCCC[C@]24CC4)CC3)C1
REMARK SMILES IDX 9 1 10 2 11 3 8 5 6 6 1 7 2 8 3 9 4 10 32 11 5 12 7 13 27 14
REMARK SMILES IDX 29 15 28 16 26 17 25 18 24 19 12 21 13 22 20 23 14 24 19 25
REMARK SMILES IDX 15 26 18 27 16 28 17 29 21 31 30 32 31 33 22 34 23 35
REMARK H PARENT 9 4 14 30
REMARK Flexibility Score:   32.900
ROOT
ATOM      1  N   UNL     1      29.050  11.168  -5.654  1.00  0.00    -0.340 N
ATOM      2  C   UNL     1      27.928  11.928  -5.422  1.00  0.00     0.255 C
ATOM      3  O   UNL     1      27.031  11.571  -4.665  1.00  0.00    -0.269 OA
ATOM      4  H   UNL     1      29.734  11.499  -6.321  1.00  0.00     0.164 HD
ENDROOT
BRANCH   1   5
ATOM      5  C   UNL     1      29.211   9.858  -5.046  1.00  0.00     0.178 C
BRANCH   5   6
ATOM      6  C   UNL     1      28.861   8.792  -6.122  1.00  0.00     0.245 C
ATOM      7  N   UNL     1      23.542   6.827  -6.160  1.00  0.00    -0.198 NA
ATOM      8  C   UNL     1      24.675   6.864  -5.916  1.00  0.00     0.069 C
ATOM      9  C   UNL     1      26.081   6.895  -5.600  1.00  0.00     0.131 C
ATOM     10  C   UNL     1      27.028   7.146  -6.785  1.00  0.00     0.140 C
ATOM     11  C   UNL     1      26.598   8.214  -4.992  1.00  0.00     0.140 C
ATOM     12  N   UNL     1      27.691   8.109  -5.931  1.00  0.00    -0.338 N
ATOM     13  O   UNL     1      29.589   8.548  -7.088  1.00  0.00    -0.272 OA
ENDBRANCH   5   6
BRANCH   5  14
ATOM     14  C   UNL     1      30.637   9.737  -4.460  1.00  0.00    -0.000 C
ATOM     15  C   UNL     1      31.200   8.347  -4.164  1.00  0.00     0.010 C
ATOM     16  C   UNL     1      30.820   9.239  -3.028  1.00  0.00     0.010 C
BRANCH  14  17
ATOM     17  C   UNL     1      31.567  10.892  -4.860  1.00  0.00     0.010 C
BRANCH  17  18
ATOM     18  C   UNL     1      32.048  11.802  -3.722  1.00  0.00     0.001 C
BRANCH  18  19
ATOM     19  C   UNL     1      33.506  11.536  -3.355  1.00  0.00     0.000 C
ATOM     20  G   UNL     1      34.158  12.685  -2.589  1.00  0.00     0.000 C
ENDBRANCH  18  19
ENDBRANCH  17  18
ENDBRANCH  14  17
ENDBRANCH   5  14
ENDBRANCH   1   5
BRANCH   2  21
ATOM     21  C   UNL     1      27.854  13.149  -6.207  1.00  0.00     0.085 A
ATOM     22  C   UNL     1      26.857  13.443  -7.130  1.00  0.00     0.100 A
ATOM     23  C   UNL     1      28.735  14.263  -6.208  1.00  0.00     0.120 A
ATOM     24  N   UNL     1      27.151  14.648  -7.721  1.00  0.00    -0.344 N
ATOM     25  N   UNL     1      29.832  14.522  -5.451  1.00  0.00    -0.246 NA
ATOM     26  C   UNL     1      28.293  15.158  -7.174  1.00  0.00     0.156 A
ATOM     27  C   UNL     1      30.438  15.710  -5.696  1.00  0.00     0.066 A
ATOM     28  N   UNL     1      28.880  16.323  -7.505  1.00  0.00    -0.235 NA
ATOM     29  C   UNL     1      29.971  16.547  -6.721  1.00  0.00     0.138 A
ATOM     30  H   UNL     1      26.617  15.108  -8.444  1.00  0.00     0.168 HD
BRANCH  27  31
ATOM     31  C   UNL     1      31.619  16.105  -4.794  1.00  0.00     0.014 C
ATOM     32  C   UNL     1      32.920  16.586  -5.439  1.00  0.00     0.014 C
ATOM     33  C   UNL     1      32.015  17.582  -4.793  1.00  0.00     0.014 C
BRANCH  31  34
ATOM     34  C   UNL     1      31.740  15.308  -3.496  1.00  0.00     0.013 C
BRANCH  34  35
ATOM     35  C   UNL     1      30.895  15.824  -2.319  1.00  0.00     0.001 C
ATOM     36  G   UNL     1      31.226  15.137  -0.997  1.00  0.00     0.000 C
ENDBRANCH  34  35
ENDBRANCH  31  34
ENDBRANCH  27  31
ENDBRANCH   2  21
TORSDOF 1
ENDMDL
MODEL 4
REMARK VINA RESULT:      -8.0      2.559      4.855
REMARK SMILES N#CC1CN(C(=O)[C@@H]2NC(=O)c3c[nH]c4ncc(nc34)[C@]3(CCCCC[C@]24CC4)CC3)C1
REMARK SMILES IDX 9 1 10 2 11 3 8 5 6 6 1 7 2 8 3 9 4 10 32 11 5 12 7 13 27 14
REMARK SMILES IDX 29 15 28 16 26 17 25 18 24 19 12 21 13 22 20 23 14 24 19 25
REMARK SMILES IDX 15 26 18 27 16 28 17 29 21 31 30 32 31 33 22 34 23 35
REMARK H PARENT 9 4 14 30
REMARK Flexibility Score:   32.900
ROOT
ATOM      1  N   UNL     1      30.674  15.329  -4.579  1.00  0.00    -0.340 N
ATOM      2  C   UNL     1      31.841  14.793  -5.068  1.00  0.00     0.255 C
ATOM      3  O   UNL     1      31.948  14.377  -6.219  1.00  0.00    -0.269 OA
ATOM      4  H   UNL     1      30.638  15.616  -3.610  1.00  0.00     0.164 HD
ENDROOT
BRANCH   1   5
ATOM      5  C   UNL     1      29.471  15.385  -5.393  1.00  0.00     0.178 C
BRANCH   5   6
ATOM      6  C   UNL     1      28.586  14.165  -5.012  1.00  0.00     0.245 C
ATOM      7  N   UNL     1      26.587  11.008  -9.277  1.00  0.00    -0.198 NA
ATOM      8  C   UNL     1      26.598  11.828  -8.456  1.00  0.00     0.069 C
ATOM      9  C   UNL     1      26.595  12.855  -7.446  1.00  0.00     0.131 C
ATOM     10  C   UNL     1      27.044  12.414  -6.042  1.00  0.00     0.140 C
ATOM     11  C   UNL     1      27.807  13.808  -7.461  1.00  0.00     0.140 C
ATOM     12  N   UNL     1      27.867  13.605  -6.032  1.00  0.00    -0.338 N
ATOM     13  O   UNL     1      28.508  13.724  -3.862  1.00  0.00    -0.272 OA
ENDBRANCH   5   6
BRANCH   5  14
ATOM     14  C   UNL     1      28.788  16.760  -5.204  1.00  0.00    -0.000 C
ATOM     15  C   UNL     1      27.266  16.852  -5.311  1.00  0.00     0.010 C
ATOM     16  C   UNL     1      28.113  17.432  -6.398  1.00  0.00     0.010 C
BRANCH  14  17
ATOM     17  C   UNL     1      29.570  17.715  -4.290  1.00  0.00     0.010 C
BRANCH  17  18
ATOM     18  C   UNL     1      30.278  18.888  -4.980  1.00  0.00     0.001 C
BRANCH  18  19
ATOM     19  C   UNL     1      31.792  18.689  -5.036  1.00  0.00     0.000 C
ATOM     20  G   UNL     1      32.302  18.307  -6.423  1.00  0.00     0.000 C
ENDBRANCH  18  19
ENDBRANCH  17  18
ENDBRANCH  14  17
ENDBRANCH   5  14
ENDBRANCH   1   5
BRANCH   2  21
ATOM     21  C   UNL     1      32.911  14.684  -4.092  1.00  0.00     0.085 A
ATOM     22  C   UNL     1      33.638  15.755  -3.585  1.00  0.00     0.100 A
ATOM     23  C   UNL     1      33.429  13.521  -3.462  1.00  0.00     0.120 A
ATOM     24  N   UNL     1      34.604  15.266  -2.740  1.00  0.00    -0.344 N
ATOM     25  N   UNL     1      33.039  12.224  -3.546  1.00  0.00    -0.246 NA
ATOM     26  C   UNL     1      34.493  13.908  -2.657  1.00  0.00     0.156 A
ATOM     27  C   UNL     1      33.747  11.355  -2.781  1.00  0.00     0.066 A
ATOM     28  N   UNL     1      35.269  13.092  -1.920  1.00  0.00    -0.235 NA
ATOM     29  C   UNL     1      34.843  11.803  -2.028  1.00  0.00     0.138 A
ATOM     30  H   UNL     1      35.295  15.807  -2.240  1.00  0.00     0.168 HD
BRANCH  27  31
ATOM     31  C   UNL     1      33.279   9.890  -2.752  1.00  0.00     0.014 C
ATOM     32  C   UNL     1      34.307   8.787  -2.498  1.00  0.00     0.014 C
ATOM     33  C   UNL     1      33.367   9.171  -1.406  1.00  0.00     0.014 C
BRANCH  31  34
ATOM     34  C   UNL     1      32.121   9.559  -3.693  1.00  0.00     0.013 C
BRANCH  34  35
ATOM     35  C   UNL     1      31.145   8.483  -3.189  1.00  0.00     0.001 C
ATOM     36  G   UNL     1      30.918   7.359  -4.196  1.00  0.00     0.000 C
ENDBRANCH  34  35
ENDBRANCH  31  34
ENDBRANCH  27  31
ENDBRANCH   2  21
TORSDOF 1
ENDMDL
MODEL 5
REMARK VINA RESULT:      -7.9      2.005      4.158
REMARK SMILES N#CC1CN(C(=O)[C@@H]2NC(=O)c3c[nH]c4ncc(nc34)[C@]3(CCCCC[C@]24CC4)CC3)C1
REMARK SMILES IDX 9 1 10 2 11 3 8 5 6 6 1 7 2 8 3 9 4 10 32 11 5 12 7 13 27 14
REMARK SMILES IDX 29 15 28 16 26 17 25 18 24 19 12 21 13 22 20 23 14 24 19 25
REMARK SMILES IDX 15 26 18 27 16 28 17 29 21 31 30 32 31 33 22 34 23 35
REMARK H PARENT 9 4 14 30
REMARK Flexibility Score:   32.900
ROOT
ATOM      1  N   UNL     1      29.990  14.514  -5.334  1.00  0.00    -0.340 N
ATOM      2  C   UNL     1      29.706  13.692  -4.269  1.00  0.00     0.255 C
ATOM      3  O   UNL     1      29.638  14.103  -3.114  1.00  0.00    -0.269 OA
ATOM      4  H   UNL     1      30.072  14.106  -6.256  1.00  0.00     0.164 HD
ENDROOT
BRANCH   1   5
ATOM      5  C   UNL     1      30.282  15.924  -5.140  1.00  0.00     0.178 C
BRANCH   5   6
ATOM      6  C   UNL     1      31.616  16.235  -5.875  1.00  0.00     0.245 C
ATOM      7  N   UNL     1      34.000  21.277  -4.848  1.00  0.00    -0.198 NA
ATOM      8  C   UNL     1      33.362  20.478  -5.396  1.00  0.00     0.069 C
ATOM      9  C   UNL     1      32.560  19.501  -6.088  1.00  0.00     0.131 C
ATOM     10  C   UNL     1      33.238  18.145  -6.352  1.00  0.00     0.140 C
ATOM     11  C   UNL     1      31.535  18.744  -5.220  1.00  0.00     0.140 C
ATOM     12  N   UNL     1      32.014  17.544  -5.865  1.00  0.00    -0.338 N
ATOM     13  O   UNL     1      32.282  15.372  -6.453  1.00  0.00    -0.272 OA
ENDBRANCH   5   6
BRANCH   5  14
ATOM     14  C   UNL     1      29.074  16.767  -5.614  1.00  0.00    -0.000 C
ATOM     15  C   UNL     1      28.512  17.841  -4.683  1.00  0.00     0.010 C
ATOM     16  C   UNL     1      27.723  16.595  -4.924  1.00  0.00     0.010 C
BRANCH  14  17
ATOM     17  C   UNL     1      28.999  16.930  -7.138  1.00  0.00     0.010 C
BRANCH  17  18
ATOM     18  C   UNL     1      28.031  15.994  -7.875  1.00  0.00     0.001 C
BRANCH  18  19
ATOM     19  C   UNL     1      26.985  16.768  -8.676  1.00  0.00     0.000 C
ATOM     20  G   UNL     1      26.773  18.195  -8.176  1.00  0.00     0.000 C
ENDBRANCH  18  19
ENDBRANCH  17  18
ENDBRANCH  14  17
ENDBRANCH   5  14
ENDBRANCH   1   5
BRANCH   2  21
ATOM     21  C   UNL     1      29.571  12.286  -4.611  1.00  0.00     0.085 A
ATOM     22  C   UNL     1      28.558  11.752  -5.398  1.00  0.00     0.100 A
ATOM     23  C   UNL     1      30.402  11.195  -4.242  1.00  0.00     0.120 A
ATOM     24  N   UNL     1      28.718  10.388  -5.449  1.00  0.00    -0.344 N
ATOM     25  N   UNL     1      31.561  11.168  -3.535  1.00  0.00    -0.246 NA
ATOM     26  C   UNL     1      29.834  10.034  -4.748  1.00  0.00     0.156 A
ATOM     27  C   UNL     1      32.118   9.940  -3.382  1.00  0.00     0.066 A
ATOM     28  N   UNL     1      30.303   8.783  -4.584  1.00  0.00    -0.235 NA
ATOM     29  C   UNL     1      31.467   8.799  -3.875  1.00  0.00     0.138 A
ATOM     30  H   UNL     1      28.121   9.731  -5.931  1.00  0.00     0.168 HD
BRANCH  27  31
ATOM     31  C   UNL     1      33.487   9.863  -2.686  1.00  0.00     0.014 C
ATOM     32  C   UNL     1      33.555   9.403  -1.229  1.00  0.00     0.014 C
ATOM     33  C   UNL     1      33.985   8.468  -2.309  1.00  0.00     0.014 C
BRANCH  31  34
ATOM     34  C   UNL     1      34.503  10.915  -3.131  1.00  0.00     0.013 C
BRANCH  34  35
ATOM     35  C   UNL     1      34.640  12.136  -2.206  1.00  0.00     0.001 C
ATOM     36  G   UNL     1      35.841  12.045  -1.268  1.00  0.00     0.000 C
ENDBRANCH  34  35
ENDBRANCH  31  34
ENDBRANCH  27  31
ENDBRANCH   2  21
TORSDOF 1
ENDMDL
MODEL 6
REMARK VINA RESULT:      -7.8      1.819      2.680
REMARK SMILES N#CC1CN(C(=O)[C@@H]2NC(=O)c3c[nH]c4ncc(nc34)[C@]3(CCCCC[C@]24CC4)CC3)C1
REMARK SMILES IDX 9 1 10 2 11 3 8 5 6 6 1 7 2 8 3 9 4 10 32 11 5 12 7 13 27 14
REMARK SMILES IDX 29 15 28 16 26 17 25 18 24 19 12 21 13 22 20 23 14 24 19 25
REMARK SMILES IDX 15 26 18 27 16 28 17 29 21 31 30 32 31 33 22 34 23 35
REMARK H PARENT 9 4 14 30
REMARK Flexibility Score:   32.900
ROOT
ATOM      1  N   UNL     1      31.989  12.955  -3.584  1.00  0.00    -0.340 N
ATOM      2  C   UNL     1      33.009  12.222  -3.026  1.00  0.00     0.255 C
ATOM      3  O   UNL     1      34.039  12.737  -2.601  1.00  0.00    -0.269 OA
ATOM      4  H   UNL     1      31.183  12.467  -3.953  1.00  0.00     0.164 HD
ENDROOT
BRANCH   1   5
ATOM      5  C   UNL     1      32.100  14.394  -3.753  1.00  0.00     0.178 C
BRANCH   5   6
ATOM      6  C   UNL     1      32.294  14.678  -5.270  1.00  0.00     0.245 C
ATOM      7  N   UNL     1      34.522  19.698  -6.681  1.00  0.00    -0.198 NA
ATOM      8  C   UNL     1      33.704  18.902  -6.474  1.00  0.00     0.069 C
ATOM      9  C   UNL     1      32.674  17.927  -6.217  1.00  0.00     0.131 C
ATOM     10  C   UNL     1      32.863  16.559  -6.895  1.00  0.00     0.140 C
ATOM     11  C   UNL     1      32.771  17.196  -4.864  1.00  0.00     0.140 C
ATOM     12  N   UNL     1      32.534  15.981  -5.609  1.00  0.00    -0.338 N
ATOM     13  O   UNL     1      32.221  13.799  -6.133  1.00  0.00    -0.272 OA
ENDBRANCH   5   6
BRANCH   5  14
ATOM     14  C   UNL     1      30.866  15.081  -3.122  1.00  0.00    -0.000 C
ATOM     15  C   UNL     1      31.059  15.952  -1.881  1.00  0.00     0.010 C
ATOM     16  C   UNL     1      30.378  14.629  -1.748  1.00  0.00     0.010 C
BRANCH  14  17
ATOM     17  C   UNL     1      29.749  15.386  -4.131  1.00  0.00     0.010 C
BRANCH  17  18
ATOM     18  C   UNL     1      28.732  14.264  -4.377  1.00  0.00     0.001 C
BRANCH  18  19
ATOM     19  C   UNL     1      27.325  14.810  -4.615  1.00  0.00     0.000 C
ATOM     20  G   UNL     1      27.235  15.750  -5.814  1.00  0.00     0.000 C
ENDBRANCH  18  19
ENDBRANCH  17  18
ENDBRANCH  14  17
ENDBRANCH   5  14
ENDBRANCH   1   5
BRANCH   2  21
ATOM     21  C   UNL     1      32.802  10.784  -3.051  1.00  0.00     0.085 A
ATOM     22  C   UNL     1      33.610   9.852  -2.411  1.00  0.00     0.100 A
ATOM     23  C   UNL     1      31.779  10.041  -3.699  1.00  0.00     0.120 A
ATOM     24  N   UNL     1      33.148   8.594  -2.710  1.00  0.00    -0.344 N
ATOM     25  N   UNL     1      30.699  10.458  -4.407  1.00  0.00    -0.246 NA
ATOM     26  C   UNL     1      32.036   8.692  -3.497  1.00  0.00     0.156 A
ATOM     27  C   UNL     1      29.897   9.471  -4.877  1.00  0.00     0.066 A
ATOM     28  N   UNL     1      31.315   7.664  -3.981  1.00  0.00    -0.235 NA
ATOM     29  C   UNL     1      30.240   8.124  -4.680  1.00  0.00     0.138 A
ATOM     30  H   UNL     1      33.547   7.718  -2.403  1.00  0.00     0.168 HD
BRANCH  27  31
ATOM     31  C   UNL     1      28.600   9.887  -5.591  1.00  0.00     0.014 C
ATOM     32  C   UNL     1      27.642  10.851  -4.890  1.00  0.00     0.014 C
ATOM     33  C   UNL     1      28.490  11.353  -6.010  1.00  0.00     0.014 C
BRANCH  31  34
ATOM     34  C   UNL     1      27.977   8.815  -6.484  1.00  0.00     0.013 C
BRANCH  34  35
ATOM     35  C   UNL     1      28.537   8.736  -7.914  1.00  0.00     0.001 C
ATOM     36  G   UNL     1      29.107   7.363  -8.260  1.00  0.00     0.000 C
ENDBRANCH  34  35
ENDBRANCH  31  34
ENDBRANCH  27  31
ENDBRANCH   2  21
TORSDOF 1
ENDMDL
MODEL 7
REMARK VINA RESULT:      -7.7      2.865      5.603
REMARK SMILES N#CC1CN(C(=O)[C@@H]2NC(=O)c3c[nH]c4ncc(nc34)[C@]3(CCCCC[C@]24CC4)CC3)C1
REMARK SMILES IDX 9 1 10 2 11 3 8 5 6 6 1 7 2 8 3 9 4 10 32 11 5 12 7 13 27 14
REMARK SMILES IDX 29 15 28 16 26 17 25 18 24 19 12 21 13 22 20 23 14 24 19 25
REMARK SMILES IDX 15 26 18 27 16 28 17 29 21 31 30 32 31 33 22 34 23 35
REMARK H PARENT 9 4 14 30
REMARK Flexibility Score:   32.900
ROOT
ATOM      1  N   UNL     1      31.539  12.282  -4.009  1.00  0.00    -0.340 N
ATOM      2  C   UNL     1      30.787  11.359  -4.697  1.00  0.00     0.255 C
ATOM      3  O   UNL     1      29.968  11.677  -5.554  1.00  0.00    -0.269 OA
ATOM      4  H   UNL     1      32.167  11.957  -3.286  1.00  0.00     0.164 HD
ENDROOT
BRANCH   1   5
ATOM      5  C   UNL     1      31.363  13.707  -4.226  1.00  0.00     0.178 C
BRANCH   5   6
ATOM      6  C   UNL     1      29.879  14.053  -3.919  1.00  0.00     0.245 C
ATOM      7  N   UNL     1      26.800  16.185  -8.177  1.00  0.00    -0.198 NA
ATOM      8  C   UNL     1      27.465  16.177  -7.227  1.00  0.00     0.069 C
ATOM      9  C   UNL     1      28.295  16.188  -6.049  1.00  0.00     0.131 C
ATOM     10  C   UNL     1      27.856  15.247  -4.913  1.00  0.00     0.140 C
ATOM     11  C   UNL     1      29.594  15.362  -6.141  1.00  0.00     0.140 C
ATOM     12  N   UNL     1      29.244  14.839  -4.840  1.00  0.00    -0.338 N
ATOM     13  O   UNL     1      29.295  13.667  -2.902  1.00  0.00    -0.272 OA
ENDBRANCH   5   6
BRANCH   5  14
ATOM     14  C   UNL     1      32.395  14.486  -3.376  1.00  0.00    -0.000 C
ATOM     15  C   UNL     1      32.168  15.975  -3.117  1.00  0.00     0.010 C
ATOM     16  C   UNL     1      33.264  15.551  -4.041  1.00  0.00     0.010 C
BRANCH  14  17
ATOM     17  C   UNL     1      33.127  13.613  -2.347  1.00  0.00     0.010 C
BRANCH  17  18
ATOM     18  C   UNL     1      34.602  13.309  -2.641  1.00  0.00     0.001 C
BRANCH  18  19
ATOM     19  C   UNL     1      34.959  11.856  -2.332  1.00  0.00     0.000 C
ATOM     20  G   UNL     1      35.935  11.706  -1.168  1.00  0.00     0.000 C
ENDBRANCH  18  19
ENDBRANCH  17  18
ENDBRANCH  14  17
ENDBRANCH   5  14
ENDBRANCH   1   5
BRANCH   2  21
ATOM     21  C   UNL     1      30.983   9.983  -4.271  1.00  0.00     0.085 A
ATOM     22  C   UNL     1      31.853   9.577  -3.266  1.00  0.00     0.100 A
ATOM     23  C   UNL     1      30.361   8.802  -4.756  1.00  0.00     0.120 A
ATOM     24  N   UNL     1      31.820   8.206  -3.187  1.00  0.00    -0.344 N
ATOM     25  N   UNL     1      29.389   8.636  -5.688  1.00  0.00    -0.246 NA
ATOM     26  C   UNL     1      30.920   7.719  -4.090  1.00  0.00     0.156 A
ATOM     27  C   UNL     1      29.001   7.353  -5.899  1.00  0.00     0.066 A
ATOM     28  N   UNL     1      30.622   6.422  -4.292  1.00  0.00    -0.235 NA
ATOM     29  C   UNL     1      29.641   6.299  -5.229  1.00  0.00     0.138 A
ATOM     30  H   UNL     1      32.362   7.627  -2.561  1.00  0.00     0.168 HD
BRANCH  27  31
ATOM     31  C   UNL     1      27.826   7.115  -6.863  1.00  0.00     0.014 C
ATOM     32  C   UNL     1      28.121   6.737  -8.315  1.00  0.00     0.014 C
ATOM     33  C   UNL     1      27.638   5.686  -7.373  1.00  0.00     0.014 C
BRANCH  31  34
ATOM     34  C   UNL     1      26.590   7.976  -6.606  1.00  0.00     0.013 C
BRANCH  34  35
ATOM     35  C   UNL     1      25.599   7.421  -5.570  1.00  0.00     0.001 C
ATOM     36  G   UNL     1      24.247   7.049  -6.172  1.00  0.00     0.000 C
ENDBRANCH  34  35
ENDBRANCH  31  34
ENDBRANCH  27  31
ENDBRANCH   2  21
TORSDOF 1
ENDMDL
MODEL 8
REMARK VINA RESULT:      -7.6      1.263      2.334
REMARK SMILES N#CC1CN(C(=O)[C@@H]2NC(=O)c3c[nH]c4ncc(nc34)[C@]3(CCCCC[C@]24CC4)CC3)C1
REMARK SMILES IDX 9 1 10 2 11 3 8 5 6 6 1 7 2 8 3 9 4 10 32 11 5 12 7 13 27 14
REMARK SMILES IDX 29 15 28 16 26 17 25 18 24 19 12 21 13 22 20 23 14 24 19 25
REMARK SMILES IDX 15 26 18 27 16 28 17 29 21 31 30 32 31 33 22 34 23 35
REMARK H PARENT 9 4 14 30
REMARK Flexibility Score:   32.900
ROOT
ATOM      1  N   UNL     1      32.548  13.601  -3.214  1.00  0.00    -0.340 N
ATOM      2  C   UNL     1      33.769  13.079  -2.860  1.00  0.00     0.255 C
ATOM      3  O   UNL     1      34.774  13.772  -2.734  1.00  0.00    -0.269 OA
ATOM      4  H   UNL     1      31.767  12.971  -3.343  1.00  0.00     0.164 HD
ENDROOT
BRANCH   1   5
ATOM      5  C   UNL     1      32.391  15.014  -3.515  1.00  0.00     0.178 C
BRANCH   5   6
ATOM      6  C   UNL     1      32.457  15.179  -5.059  1.00  0.00     0.245 C
ATOM      7  N   UNL     1      34.574  20.054  -7.036  1.00  0.00    -0.198 NA
ATOM      8  C   UNL     1      33.773  19.284  -6.701  1.00  0.00     0.069 C
ATOM      9  C   UNL     1      32.765  18.342  -6.284  1.00  0.00     0.131 C
ATOM     10  C   UNL     1      32.892  16.924  -6.867  1.00  0.00     0.140 C
ATOM     11  C   UNL     1      32.974  17.716  -4.891  1.00  0.00     0.140 C
ATOM     12  N   UNL     1      32.672  16.449  -5.517  1.00  0.00    -0.338 N
ATOM     13  O   UNL     1      32.309  14.237  -5.843  1.00  0.00    -0.272 OA
ENDBRANCH   5   6
BRANCH   5  14
ATOM     14  C   UNL     1      31.086  15.534  -2.867  1.00  0.00    -0.000 C
ATOM     15  C   UNL     1      30.979  15.567  -1.342  1.00  0.00     0.010 C
ATOM     16  C   UNL     1      30.185  14.560  -2.110  1.00  0.00     0.010 C
BRANCH  14  17
ATOM     17  C   UNL     1      30.338  16.561  -3.729  1.00  0.00     0.010 C
BRANCH  17  18
ATOM     18  C   UNL     1      29.159  16.026  -4.552  1.00  0.00     0.001 C
BRANCH  18  19
ATOM     19  C   UNL     1      28.864  16.905  -5.767  1.00  0.00     0.000 C
ATOM     20  G   UNL     1      29.064  16.185  -7.098  1.00  0.00     0.000 C
ENDBRANCH  18  19
ENDBRANCH  17  18
ENDBRANCH  14  17
ENDBRANCH   5  14
ENDBRANCH   1   5
BRANCH   2  21
ATOM     21  C   UNL     1      33.790  11.632  -2.725  1.00  0.00     0.085 A
ATOM     22  C   UNL     1      34.778  10.908  -2.068  1.00  0.00     0.100 A
ATOM     23  C   UNL     1      32.854  10.678  -3.206  1.00  0.00     0.120 A
ATOM     24  N   UNL     1      34.500   9.570  -2.202  1.00  0.00    -0.344 N
ATOM     25  N   UNL     1      31.675  10.848  -3.856  1.00  0.00    -0.246 NA
ATOM     26  C   UNL     1      33.335   9.413  -2.895  1.00  0.00     0.156 A
ATOM     27  C   UNL     1      31.007   9.706  -4.155  1.00  0.00     0.066 A
ATOM     28  N   UNL     1      32.752   8.242  -3.211  1.00  0.00    -0.235 NA
ATOM     29  C   UNL     1      31.572   8.455  -3.857  1.00  0.00     0.138 A
ATOM     30  H   UNL     1      35.052   8.803  -1.844  1.00  0.00     0.168 HD
BRANCH  27  31
ATOM     31  C   UNL     1      29.615   9.842  -4.792  1.00  0.00     0.014 C
ATOM     32  C   UNL     1      29.402   9.356  -6.226  1.00  0.00     0.014 C
ATOM     33  C   UNL     1      28.870   8.542  -5.095  1.00  0.00     0.014 C
BRANCH  31  34
ATOM     34  C   UNL     1      28.814  11.065  -4.347  1.00  0.00     0.013 C
BRANCH  34  35
ATOM     35  C   UNL     1      28.941  12.305  -5.249  1.00  0.00     0.001 C
ATOM     36  G   UNL     1      27.603  12.980  -5.533  1.00  0.00     0.000 C
ENDBRANCH  34  35
ENDBRANCH  31  34
ENDBRANCH  27  31
ENDBRANCH   2  21
TORSDOF 1
ENDMDL
MODEL 9
REMARK VINA RESULT:      -7.5      3.130      8.760
REMARK SMILES N#CC1CN(C(=O)[C@@H]2NC(=O)c3c[nH]c4ncc(nc34)[C@]3(CCCCC[C@]24CC4)CC3)C1
REMARK SMILES IDX 9 1 10 2 11 3 8 5 6 6 1 7 2 8 3 9 4 10 32 11 5 12 7 13 27 14
REMARK SMILES IDX 29 15 28 16 26 17 25 18 24 19 12 21 13 22 20 23 14 24 19 25
REMARK SMILES IDX 15 26 18 27 16 28 17 29 21 31 30 32 31 33 22 34 23 35
REMARK H PARENT 9 4 14 30
REMARK Flexibility Score:   32.900
ROOT
ATOM      1  N   UNL     1      29.885  14.779  -4.367  1.00  0.00    -0.340 N
ATOM      2  C   UNL     1      30.081  16.029  -3.828  1.00  0.00     0.255 C
ATOM      3  O   UNL     1      30.767  16.218  -2.828  1.00  0.00    -0.269 OA
ATOM      4  H   UNL     1      29.274  14.685  -5.168  1.00  0.00     0.164 HD
ENDROOT
BRANCH   1   5
ATOM      5  C   UNL     1      30.443  13.593  -3.742  1.00  0.00     0.178 C
BRANCH   5   6
ATOM      6  C   UNL     1      29.497  12.401  -4.061  1.00  0.00     0.245 C
ATOM      7  N   UNL     1      26.663  12.607  -8.968  1.00  0.00    -0.198 NA
ATOM      8  C   UNL     1      26.861  12.732  -7.832  1.00  0.00     0.069 C
ATOM      9  C   UNL     1      27.091  12.899  -6.419  1.00  0.00     0.131 C
ATOM     10  C   UNL     1      27.670  11.676  -5.686  1.00  0.00     0.140 C
ATOM     11  C   UNL     1      28.379  13.655  -6.038  1.00  0.00     0.140 C
ATOM     12  N   UNL     1      28.602  12.601  -5.074  1.00  0.00    -0.338 N
ATOM     13  O   UNL     1      29.524  11.336  -3.437  1.00  0.00    -0.272 OA
ENDBRANCH   5   6
BRANCH   5  14
ATOM     14  C   UNL     1      31.903  13.402  -4.219  1.00  0.00    -0.000 C
ATOM     15  C   UNL     1      32.251  13.707  -5.676  1.00  0.00     0.010 C
ATOM     16  C   UNL     1      32.227  12.286  -5.210  1.00  0.00     0.010 C
BRANCH  14  17
ATOM     17  C   UNL     1      32.943  13.592  -3.106  1.00  0.00     0.010 C
BRANCH  17  18
ATOM     18  C   UNL     1      33.826  12.379  -2.787  1.00  0.00     0.001 C
BRANCH  18  19
ATOM     19  C   UNL     1      35.193  12.793  -2.245  1.00  0.00     0.000 C
ATOM     20  G   UNL     1      35.806  11.766  -1.297  1.00  0.00     0.000 C
ENDBRANCH  18  19
ENDBRANCH  17  18
ENDBRANCH  14  17
ENDBRANCH   5  14
ENDBRANCH   1   5
BRANCH   2  21
ATOM     21  C   UNL     1      29.347  17.093  -4.490  1.00  0.00     0.085 A
ATOM     22  C   UNL     1      27.964  17.151  -4.612  1.00  0.00     0.100 A
ATOM     23  C   UNL     1      29.849  18.260  -5.128  1.00  0.00     0.120 A
ATOM     24  N   UNL     1      27.636  18.261  -5.351  1.00  0.00    -0.344 N
ATOM     25  N   UNL     1      31.118  18.727  -5.242  1.00  0.00    -0.246 NA
ATOM     26  C   UNL     1      28.772  18.945  -5.676  1.00  0.00     0.156 A
ATOM     27  C   UNL     1      31.246  19.903  -5.905  1.00  0.00     0.066 A
ATOM     28  N   UNL     1      28.836  20.083  -6.392  1.00  0.00    -0.235 NA
ATOM     29  C   UNL     1      30.123  20.520  -6.479  1.00  0.00     0.138 A
ATOM     30  H   UNL     1      26.707  18.552  -5.619  1.00  0.00     0.168 HD
BRANCH  27  31
ATOM     31  C   UNL     1      32.647  20.535  -5.968  1.00  0.00     0.014 C
ATOM     32  C   UNL     1      32.783  22.054  -5.853  1.00  0.00     0.014 C
ATOM     33  C   UNL     1      33.156  21.199  -4.689  1.00  0.00     0.014 C
BRANCH  31  34
ATOM     34  C   UNL     1      33.644  19.814  -6.873  1.00  0.00     0.013 C
BRANCH  34  35
ATOM     35  C   UNL     1      34.158  18.463  -6.350  1.00  0.00     0.001 C
ATOM     36  G   UNL     1      33.668  17.275  -7.173  1.00  0.00     0.000 C
ENDBRANCH  34  35
ENDBRANCH  31  34
ENDBRANCH  27  31
ENDBRANCH   2  21
TORSDOF 1
ENDMDL
