MODEL 1
REMARK VINA RESULT:      -8.4      0.000      0.000
REMARK SMILES CC(C)(C)[C@H]1NC(=O)c2c[nH]c3ncc(nc23)[C@]2(CCOCNC[C@@]3(C#N)CN(C3)C1=O)CC2
REMARK SMILES IDX 18 1 34 2 33 3 15 4 9 5 10 6 17 7 11 8 16 9 12 10 13 11
REMARK SMILES IDX 14 12 7 14 6 15 8 16 5 18 2 19 1 20 3 21 4 22 31 23 32 24
REMARK SMILES IDX 29 25 30 26 28 27 25 28 26 29 27 30 19 32 20 33 21 34 22 35
REMARK SMILES IDX 23 36 24 38
REMARK H PARENT 11 13 6 17 23 37
REMARK Flexibility Score:  181.900
ROOT
ATOM      1  C   UNL     1      32.908   9.887  -2.912  1.00  0.00     0.016 C
ATOM      2  C   UNL     1      32.773   9.132  -1.595  1.00  0.00     0.014 C
ATOM      3  C   UNL     1      33.945   8.857  -2.483  1.00  0.00     0.014 C
ENDROOT
BRANCH   1   4
ATOM      4  C   UNL     1      33.327  11.358  -2.902  1.00  0.00     0.066 A
ATOM      5  C   UNL     1      32.068  14.797  -3.299  1.00  0.00     0.085 A
ATOM      6  C   UNL     1      33.001  15.819  -3.137  1.00  0.00     0.100 A
ATOM      7  C   UNL     1      32.785  13.575  -3.127  1.00  0.00     0.120 A
ATOM      8  N   UNL     1      34.222  15.254  -2.855  1.00  0.00    -0.344 N
ATOM      9  N   UNL     1      32.372  12.281  -3.177  1.00  0.00    -0.246 NA
ATOM     10  C   UNL     1      34.103  13.897  -2.827  1.00  0.00     0.156 A
ATOM     11  N   UNL     1      35.094  13.032  -2.543  1.00  0.00    -0.235 NA
ATOM     12  C   UNL     1      34.634  11.752  -2.586  1.00  0.00     0.138 A
ATOM     13  H   UNL     1      35.087  15.746  -2.677  1.00  0.00     0.168 HD
BRANCH   5  14
ATOM     14  C   UNL     1      30.642  14.935  -3.569  1.00  0.00     0.255 C
ATOM     15  N   UNL     1      30.325  15.790  -4.605  1.00  0.00    -0.340 N
ATOM     16  O   UNL     1      29.775  14.382  -2.899  1.00  0.00    -0.269 OA
ATOM     17  H   UNL     1      31.063  16.360  -4.997  1.00  0.00     0.164 HD
BRANCH  15  18
ATOM     18  C   UNL     1      28.949  16.238  -4.821  1.00  0.00     0.177 C
BRANCH  18  19
ATOM     19  C   UNL     1      28.287  15.608  -6.083  1.00  0.00    -0.009 C
ATOM     20  C   UNL     1      28.791  14.157  -6.241  1.00  0.00     0.013 C
ATOM     21  C   UNL     1      26.758  15.561  -5.890  1.00  0.00     0.013 C
ATOM     22  C   UNL     1      28.592  16.364  -7.389  1.00  0.00     0.013 C
ENDBRANCH  18  19
BRANCH  18  23
ATOM     23  C   UNL     1      29.056  17.779  -4.864  1.00  0.00     0.245 C
ATOM     24  O   UNL     1      28.062  18.499  -4.741  1.00  0.00    -0.272 OA
BRANCH  23  25
ATOM     25  N   UNL     1      30.282  18.305  -5.149  1.00  0.00    -0.337 N
ATOM     26  C   UNL     1      31.224  18.972  -4.263  1.00  0.00     0.145 C
ATOM     27  C   UNL     1      30.991  18.672  -6.357  1.00  0.00     0.145 C
ATOM     28  C   UNL     1      31.673  19.780  -5.507  1.00  0.00     0.105 C
ATOM     29  C   UNL     1      33.105  19.844  -5.703  1.00  0.00     0.074 C
ATOM     30  N   UNL     1      34.254  19.881  -5.874  1.00  0.00    -0.198 NA
ATOM     31  G   UNL     1      30.987  21.147  -5.686  1.00  0.00     0.000 C
ENDBRANCH  23  25
ENDBRANCH  18  23
ENDBRANCH  15  18
ENDBRANCH   5  14
ENDBRANCH   1   4
BRANCH   1  32
ATOM     32  C   UNL     1      31.968   9.513  -4.050  1.00  0.00     0.042 C
BRANCH  32  33
ATOM     33  C   UNL     1      30.549   9.202  -3.562  1.00  0.00     0.163 C
BRANCH  33  34
ATOM     34  O   UNL     1      29.750  10.385  -3.494  1.00  0.00    -0.366 OA
BRANCH  34  35
ATOM     35  C   UNL     1      29.085  10.683  -4.712  1.00  0.00     0.244 C
BRANCH  35  36
ATOM     36  N   UNL     1      27.844   9.924  -4.805  1.00  0.00    -0.293 NA
ATOM     37  H   UNL     1      27.862   9.274  -4.016  1.00  0.00     0.125 HD
BRANCH  36  38
ATOM     38  C   UNL     1      27.782   9.158  -6.060  1.00  0.00     0.109 C
ATOM     39  G   UNL     1      28.034   7.653  -5.846  1.00  0.00     0.000 C
ENDBRANCH  36  38
ENDBRANCH  35  36
ENDBRANCH  34  35
ENDBRANCH  33  34
ENDBRANCH  32  33
ENDBRANCH   1  32
TORSDOF 1
ENDMDL
MODEL 2
REMARK VINA RESULT:      -8.1      1.758      4.489
REMARK SMILES CC(C)(C)[C@H]1NC(=O)c2c[nH]c3ncc(nc23)[C@]2(CCOCNC[C@@]3(C#N)CN(C3)C1=O)CC2
REMARK SMILES IDX 18 1 34 2 33 3 15 4 9 5 10 6 17 7 11 8 16 9 12 10 13 11
REMARK SMILES IDX 14 12 7 14 6 15 8 16 5 18 2 19 1 20 3 21 4 22 31 23 32 24
REMARK SMILES IDX 29 25 30 26 28 27 25 28 26 29 27 30 19 32 20 33 21 34 22 35
REMARK SMILES IDX 23 36 24 38
REMARK H PARENT 11 13 6 17 23 37
REMARK Flexibility Score:  181.900
ROOT
ATOM      1  C   UNL     1      33.229   9.895  -2.675  1.00  0.00     0.016 C
ATOM      2  C   UNL     1      33.970   8.582  -2.452  1.00  0.00     0.014 C
ATOM      3  C   UNL     1      33.209   9.197  -1.322  1.00  0.00     0.014 C
ENDROOT
BRANCH   1   4
ATOM      4  C   UNL     1      31.932   9.904  -3.485  1.00  0.00     0.066 A
ATOM      5  C   UNL     1      29.166  12.057  -4.619  1.00  0.00     0.085 A
ATOM      6  C   UNL     1      28.206  11.454  -5.427  1.00  0.00     0.100 A
ATOM      7  C   UNL     1      30.106  11.035  -4.289  1.00  0.00     0.120 A
ATOM      8  N   UNL     1      28.551  10.136  -5.607  1.00  0.00    -0.344 N
ATOM      9  N   UNL     1      31.236  11.067  -3.535  1.00  0.00    -0.246 NA
ATOM     10  C   UNL     1      29.710   9.873  -4.940  1.00  0.00     0.156 A
ATOM     11  N   UNL     1      30.355   8.691  -4.933  1.00  0.00    -0.235 NA
ATOM     12  C   UNL     1      31.487   8.773  -4.182  1.00  0.00     0.138 A
ATOM     13  H   UNL     1      28.051   9.451  -6.157  1.00  0.00     0.168 HD
BRANCH   5  14
ATOM     14  C   UNL     1      29.222  13.453  -4.202  1.00  0.00     0.255 C
ATOM     15  N   UNL     1      28.865  14.366  -5.173  1.00  0.00    -0.340 N
ATOM     16  O   UNL     1      29.611  13.808  -3.093  1.00  0.00    -0.269 OA
ATOM     17  H   UNL     1      28.736  14.033  -6.119  1.00  0.00     0.164 HD
BRANCH  15  18
ATOM     18  C   UNL     1      29.125  15.796  -4.999  1.00  0.00     0.177 C
BRANCH  18  19
ATOM     19  C   UNL     1      27.943  16.698  -5.464  1.00  0.00    -0.009 C
ATOM     20  C   UNL     1      28.062  18.073  -4.772  1.00  0.00     0.013 C
ATOM     21  C   UNL     1      28.040  16.923  -6.986  1.00  0.00     0.013 C
ATOM     22  C   UNL     1      26.553  16.119  -5.142  1.00  0.00     0.013 C
ENDBRANCH  18  19
BRANCH  18  23
ATOM     23  C   UNL     1      30.445  16.034  -5.767  1.00  0.00     0.245 C
ATOM     24  O   UNL     1      30.947  15.158  -6.476  1.00  0.00    -0.272 OA
BRANCH  23  25
ATOM     25  N   UNL     1      31.085  17.218  -5.543  1.00  0.00    -0.337 N
ATOM     26  C   UNL     1      31.484  18.241  -6.497  1.00  0.00     0.145 C
ATOM     27  C   UNL     1      31.838  17.791  -4.447  1.00  0.00     0.145 C
ATOM     28  C   UNL     1      32.656  18.548  -5.531  1.00  0.00     0.105 C
ATOM     29  C   UNL     1      32.839  19.951  -5.227  1.00  0.00     0.074 C
ATOM     30  N   UNL     1      32.976  21.074  -4.965  1.00  0.00    -0.198 NA
ATOM     31  G   UNL     1      33.981  17.833  -5.856  1.00  0.00     0.000 C
ENDBRANCH  23  25
ENDBRANCH  18  23
ENDBRANCH  15  18
ENDBRANCH   5  14
ENDBRANCH   1   4
BRANCH   1  32
ATOM     32  C   UNL     1      34.053  11.169  -2.802  1.00  0.00     0.042 C
BRANCH  32  33
ATOM     33  C   UNL     1      35.004  11.374  -1.617  1.00  0.00     0.163 C
BRANCH  33  34
ATOM     34  O   UNL     1      35.506  12.711  -1.577  1.00  0.00    -0.366 OA
BRANCH  34  35
ATOM     35  C   UNL     1      35.290  13.427  -2.783  1.00  0.00     0.244 C
BRANCH  35  36
ATOM     36  N   UNL     1      34.755  14.751  -2.491  1.00  0.00    -0.293 NA
ATOM     37  H   UNL     1      34.961  14.917  -1.504  1.00  0.00     0.125 HD
BRANCH  36  38
ATOM     38  C   UNL     1      33.297  14.793  -2.694  1.00  0.00     0.109 C
ATOM     39  G   UNL     1      32.874  14.199  -4.051  1.00  0.00     0.000 C
ENDBRANCH  36  38
ENDBRANCH  35  36
ENDBRANCH  34  35
ENDBRANCH  33  34
ENDBRANCH  32  33
ENDBRANCH   1  32
TORSDOF 1
ENDMDL
MODEL 3
REMARK VINA RESULT:      -8.1      0.873      1.080
REMARK SMILES CC(C)(C)[C@H]1NC(=O)c2c[nH]c3ncc(nc23)[C@]2(CCOCNC[C@@]3(C#N)CN(C3)C1=O)CC2
REMARK SMILES IDX 18 1 34 2 33 3 15 4 9 5 10 6 17 7 11 8 16 9 12 10 13 11
REMARK SMILES IDX 14 12 7 14 6 15 8 16 5 18 2 19 1 20 3 21 4 22 31 23 32 24
REMARK SMILES IDX 29 25 30 26 28 27 25 28 26 29 27 30 19 32 20 33 21 34 22 35
REMARK SMILES IDX 23 36 24 38
REMARK H PARENT 11 13 6 17 23 37
REMARK Flexibility Score:  181.900
ROOT
ATOM      1  C   UNL     1      32.838   9.865  -2.644  1.00  0.00     0.016 C
ATOM      2  C   UNL     1      33.039   9.103  -1.340  1.00  0.00     0.014 C
ATOM      3  C   UNL     1      33.915   8.795  -2.512  1.00  0.00     0.014 C
ENDROOT
BRANCH   1   4
ATOM      4  C   UNL     1      33.298  11.320  -2.749  1.00  0.00     0.066 A
ATOM      5  C   UNL     1      32.119  14.761  -3.332  1.00  0.00     0.085 A
ATOM      6  C   UNL     1      33.085  15.763  -3.274  1.00  0.00     0.100 A
ATOM      7  C   UNL     1      32.808  13.532  -3.104  1.00  0.00     0.120 A
ATOM      8  N   UNL     1      34.300  15.182  -2.999  1.00  0.00    -0.344 N
ATOM      9  N   UNL     1      32.359  12.251  -3.051  1.00  0.00    -0.246 NA
ATOM     10  C   UNL     1      34.145  13.834  -2.874  1.00  0.00     0.156 A
ATOM     11  N   UNL     1      35.122  12.961  -2.568  1.00  0.00    -0.235 NA
ATOM     12  C   UNL     1      34.626  11.696  -2.507  1.00  0.00     0.138 A
ATOM     13  H   UNL     1      35.184  15.659  -2.886  1.00  0.00     0.168 HD
BRANCH   5  14
ATOM     14  C   UNL     1      30.688  14.923  -3.559  1.00  0.00     0.255 C
ATOM     15  N   UNL     1      30.353  15.820  -4.553  1.00  0.00    -0.340 N
ATOM     16  O   UNL     1      29.832  14.354  -2.887  1.00  0.00    -0.269 OA
ATOM     17  H   UNL     1      31.087  16.397  -4.943  1.00  0.00     0.164 HD
BRANCH  15  18
ATOM     18  C   UNL     1      28.977  16.289  -4.716  1.00  0.00     0.177 C
BRANCH  18  19
ATOM     19  C   UNL     1      28.275  15.712  -5.982  1.00  0.00    -0.009 C
ATOM     20  C   UNL     1      29.157  15.998  -7.216  1.00  0.00     0.013 C
ATOM     21  C   UNL     1      28.140  14.183  -5.839  1.00  0.00     0.013 C
ATOM     22  C   UNL     1      26.878  16.305  -6.245  1.00  0.00     0.013 C
ENDBRANCH  18  19
BRANCH  18  23
ATOM     23  C   UNL     1      29.100  17.829  -4.706  1.00  0.00     0.245 C
ATOM     24  O   UNL     1      28.127  18.554  -4.482  1.00  0.00    -0.272 OA
BRANCH  23  25
ATOM     25  N   UNL     1      30.309  18.355  -5.060  1.00  0.00    -0.337 N
ATOM     26  C   UNL     1      31.335  18.948  -4.216  1.00  0.00     0.145 C
ATOM     27  C   UNL     1      30.921  18.790  -6.298  1.00  0.00     0.145 C
ATOM     28  C   UNL     1      31.694  19.829  -5.439  1.00  0.00     0.105 C
ATOM     29  C   UNL     1      33.106  19.885  -5.751  1.00  0.00     0.074 C
ATOM     30  N   UNL     1      34.237  19.916  -6.017  1.00  0.00    -0.198 NA
ATOM     31  G   UNL     1      31.024  21.216  -5.470  1.00  0.00     0.000 C
ENDBRANCH  23  25
ENDBRANCH  18  23
ENDBRANCH  15  18
ENDBRANCH   5  14
ENDBRANCH   1   4
BRANCH   1  32
ATOM     32  C   UNL     1      31.612   9.535  -3.483  1.00  0.00     0.042 C
BRANCH  32  33
ATOM     33  C   UNL     1      31.593   8.075  -3.947  1.00  0.00     0.163 C
BRANCH  33  34
ATOM     34  O   UNL     1      30.361   7.749  -4.594  1.00  0.00    -0.366 OA
BRANCH  34  35
ATOM     35  C   UNL     1      29.821   8.825  -5.346  1.00  0.00     0.244 C
BRANCH  35  36
ATOM     36  N   UNL     1      29.274   8.333  -6.604  1.00  0.00    -0.293 NA
ATOM     37  H   UNL     1      28.959   9.164  -7.108  1.00  0.00     0.125 HD
BRANCH  36  38
ATOM     38  C   UNL     1      28.123   7.444  -6.371  1.00  0.00     0.109 C
ATOM     39  G   UNL     1      26.806   8.221  -6.185  1.00  0.00     0.000 C
ENDBRANCH  36  38
ENDBRANCH  35  36
ENDBRANCH  34  35
ENDBRANCH  33  34
ENDBRANCH  32  33
ENDBRANCH   1  32
TORSDOF 1
ENDMDL
MODEL 4
REMARK VINA RESULT:      -8.0      0.851      1.082
REMARK SMILES CC(C)(C)[C@H]1NC(=O)c2c[nH]c3ncc(nc23)[C@]2(CCOCNC[C@@]3(C#N)CN(C3)C1=O)CC2
REMARK SMILES IDX 18 1 34 2 33 3 15 4 9 5 10 6 17 7 11 8 16 9 12 10 13 11
REMARK SMILES IDX 14 12 7 14 6 15 8 16 5 18 2 19 1 20 3 21 4 22 31 23 32 24
REMARK SMILES IDX 29 25 30 26 28 27 25 28 26 29 27 30 19 32 20 33 21 34 22 35
REMARK SMILES IDX 23 36 24 38
REMARK H PARENT 11 13 6 17 23 37
REMARK Flexibility Score:  181.900
ROOT
ATOM      1  C   UNL     1      33.460   9.938  -2.302  1.00  0.00     0.016 C
ATOM      2  C   UNL     1      34.366   9.036  -1.473  1.00  0.00     0.014 C
ATOM      3  C   UNL     1      34.354   8.896  -2.962  1.00  0.00     0.014 C
ENDROOT
BRANCH   1   4
ATOM      4  C   UNL     1      33.829  11.409  -2.497  1.00  0.00     0.066 A
ATOM      5  C   UNL     1      32.444  14.728  -3.299  1.00  0.00     0.085 A
ATOM      6  C   UNL     1      33.345  15.789  -3.301  1.00  0.00     0.100 A
ATOM      7  C   UNL     1      33.206  13.560  -2.992  1.00  0.00     0.120 A
ATOM      8  N   UNL     1      34.592  15.303  -2.986  1.00  0.00    -0.344 N
ATOM      9  N   UNL     1      32.837  12.259  -2.860  1.00  0.00    -0.246 NA
ATOM     10  C   UNL     1      34.520  13.959  -2.778  1.00  0.00     0.156 A
ATOM     11  N   UNL     1      35.548  13.169  -2.415  1.00  0.00    -0.235 NA
ATOM     12  C   UNL     1      35.131  11.881  -2.276  1.00  0.00     0.138 A
ATOM     13  H   UNL     1      35.444  15.841  -2.901  1.00  0.00     0.168 HD
BRANCH   5  14
ATOM     14  C   UNL     1      31.007  14.785  -3.539  1.00  0.00     0.255 C
ATOM     15  N   UNL     1      30.616  15.669  -4.525  1.00  0.00    -0.340 N
ATOM     16  O   UNL     1      30.189  14.145  -2.884  1.00  0.00    -0.269 OA
ATOM     17  H   UNL     1      31.308  16.304  -4.900  1.00  0.00     0.164 HD
BRANCH  15  18
ATOM     18  C   UNL     1      29.210  16.036  -4.697  1.00  0.00     0.177 C
BRANCH  18  19
ATOM     19  C   UNL     1      28.556  15.395  -5.957  1.00  0.00    -0.009 C
ATOM     20  C   UNL     1      29.321  14.103  -6.316  1.00  0.00     0.013 C
ATOM     21  C   UNL     1      27.098  15.010  -5.636  1.00  0.00     0.013 C
ATOM     22  C   UNL     1      28.558  16.312  -7.194  1.00  0.00     0.013 C
ENDBRANCH  18  19
BRANCH  18  23
ATOM     23  C   UNL     1      29.224  17.581  -4.706  1.00  0.00     0.245 C
ATOM     24  O   UNL     1      28.207  18.237  -4.461  1.00  0.00    -0.272 OA
BRANCH  23  25
ATOM     25  N   UNL     1      30.381  18.187  -5.099  1.00  0.00    -0.337 N
ATOM     26  C   UNL     1      31.353  18.918  -4.300  1.00  0.00     0.145 C
ATOM     27  C   UNL     1      30.951  18.597  -6.366  1.00  0.00     0.145 C
ATOM     28  C   UNL     1      31.632  19.750  -5.577  1.00  0.00     0.105 C
ATOM     29  C   UNL     1      33.033  19.910  -5.901  1.00  0.00     0.074 C
ATOM     30  N   UNL     1      34.156  20.023  -6.176  1.00  0.00    -0.198 NA
ATOM     31  G   UNL     1      30.842  21.069  -5.689  1.00  0.00     0.000 C
ENDBRANCH  23  25
ENDBRANCH  18  23
ENDBRANCH  15  18
ENDBRANCH   5  14
ENDBRANCH   1   4
BRANCH   1  32
ATOM     32  C   UNL     1      31.962   9.669  -2.272  1.00  0.00     0.042 C
BRANCH  32  33
ATOM     33  C   UNL     1      31.507   8.753  -3.413  1.00  0.00     0.163 C
BRANCH  33  34
ATOM     34  O   UNL     1      31.002   9.506  -4.517  1.00  0.00    -0.366 OA
BRANCH  34  35
ATOM     35  C   UNL     1      30.131   8.760  -5.354  1.00  0.00     0.244 C
BRANCH  35  36
ATOM     36  N   UNL     1      29.183   9.651  -6.011  1.00  0.00    -0.293 NA
ATOM     37  H   UNL     1      29.705  10.095  -6.768  1.00  0.00     0.125 HD
BRANCH  36  38
ATOM     38  C   UNL     1      28.697  10.687  -5.085  1.00  0.00     0.109 C
ATOM     39  G   UNL     1      27.360  11.303  -5.538  1.00  0.00     0.000 C
ENDBRANCH  36  38
ENDBRANCH  35  36
ENDBRANCH  34  35
ENDBRANCH  33  34
ENDBRANCH  32  33
ENDBRANCH   1  32
TORSDOF 1
ENDMDL
MODEL 5
REMARK VINA RESULT:      -7.9      1.716      4.577
REMARK SMILES CC(C)(C)[C@H]1NC(=O)c2c[nH]c3ncc(nc23)[C@]2(CCOCNC[C@@]3(C#N)CN(C3)C1=O)CC2
REMARK SMILES IDX 18 1 34 2 33 3 15 4 9 5 10 6 17 7 11 8 16 9 12 10 13 11
REMARK SMILES IDX 14 12 7 14 6 15 8 16 5 18 2 19 1 20 3 21 4 22 31 23 32 24
REMARK SMILES IDX 29 25 30 26 28 27 25 28 26 29 27 30 19 32 20 33 21 34 22 35
REMARK SMILES IDX 23 36 24 38
REMARK H PARENT 11 13 6 17 23 37
REMARK Flexibility Score:  181.900
ROOT
ATOM      1  C   UNL     1      33.220   9.884  -2.795  1.00  0.00     0.016 C
ATOM      2  C   UNL     1      34.075   8.671  -2.453  1.00  0.00     0.014 C
ATOM      3  C   UNL     1      33.342   9.383  -1.362  1.00  0.00     0.014 C
ENDROOT
BRANCH   1   4
ATOM      4  C   UNL     1      31.876   9.688  -3.499  1.00  0.00     0.066 A
ATOM      5  C   UNL     1      28.870  11.458  -4.685  1.00  0.00     0.085 A
ATOM      6  C   UNL     1      27.914  10.683  -5.336  1.00  0.00     0.100 A
ATOM      7  C   UNL     1      29.913  10.562  -4.301  1.00  0.00     0.120 A
ATOM      8  N   UNL     1      28.357   9.382  -5.373  1.00  0.00    -0.344 N
ATOM      9  N   UNL     1      31.082  10.778  -3.644  1.00  0.00    -0.246 NA
ATOM     10  C   UNL     1      29.575   9.297  -4.768  1.00  0.00     0.156 A
ATOM     11  N   UNL     1      30.316   8.179  -4.659  1.00  0.00    -0.235 NA
ATOM     12  C   UNL     1      31.483   8.444  -4.012  1.00  0.00     0.138 A
ATOM     13  H   UNL     1      27.881   8.595  -5.792  1.00  0.00     0.168 HD
BRANCH   5  14
ATOM     14  C   UNL     1      28.836  12.897  -4.454  1.00  0.00     0.255 C
ATOM     15  N   UNL     1      28.385  13.648  -5.521  1.00  0.00    -0.340 N
ATOM     16  O   UNL     1      29.229  13.421  -3.416  1.00  0.00    -0.269 OA
ATOM     17  H   UNL     1      28.253  13.185  -6.410  1.00  0.00     0.164 HD
BRANCH  15  18
ATOM     18  C   UNL     1      28.544  15.103  -5.542  1.00  0.00     0.177 C
BRANCH  18  19
ATOM     19  C   UNL     1      27.496  15.824  -6.441  1.00  0.00    -0.009 C
ATOM     20  C   UNL     1      26.332  14.852  -6.731  1.00  0.00     0.013 C
ATOM     21  C   UNL     1      26.922  17.039  -5.684  1.00  0.00     0.013 C
ATOM     22  C   UNL     1      28.060  16.309  -7.789  1.00  0.00     0.013 C
ENDBRANCH  18  19
BRANCH  18  23
ATOM     23  C   UNL     1      30.009  15.314  -5.983  1.00  0.00     0.245 C
ATOM     24  O   UNL     1      30.679  14.395  -6.463  1.00  0.00    -0.272 OA
BRANCH  23  25
ATOM     25  N   UNL     1      30.564  16.533  -5.721  1.00  0.00    -0.337 N
ATOM     26  C   UNL     1      30.282  17.455  -4.631  1.00  0.00     0.145 C
ATOM     27  C   UNL     1      31.358  17.486  -6.468  1.00  0.00     0.145 C
ATOM     28  C   UNL     1      30.661  18.586  -5.620  1.00  0.00     0.105 C
ATOM     29  C   UNL     1      31.585  19.567  -5.093  1.00  0.00     0.074 C
ATOM     30  N   UNL     1      32.343  20.345  -4.680  1.00  0.00    -0.198 NA
ATOM     31  G   UNL     1      29.478  19.228  -6.370  1.00  0.00     0.000 C
ENDBRANCH  23  25
ENDBRANCH  18  23
ENDBRANCH  15  18
ENDBRANCH   5  14
ENDBRANCH   1   4
BRANCH   1  32
ATOM     32  C   UNL     1      33.929  11.182  -3.154  1.00  0.00     0.042 C
BRANCH  32  33
ATOM     33  C   UNL     1      34.958  11.600  -2.098  1.00  0.00     0.163 C
BRANCH  33  34
ATOM     34  O   UNL     1      34.783  12.965  -1.713  1.00  0.00    -0.366 OA
BRANCH  34  35
ATOM     35  C   UNL     1      35.285  13.886  -2.670  1.00  0.00     0.244 C
BRANCH  35  36
ATOM     36  N   UNL     1      34.527  15.130  -2.614  1.00  0.00    -0.293 NA
ATOM     37  H   UNL     1      34.387  15.320  -1.620  1.00  0.00     0.125 HD
BRANCH  36  38
ATOM     38  C   UNL     1      33.216  14.982  -3.268  1.00  0.00     0.109 C
ATOM     39  G   UNL     1      32.045  15.113  -2.276  1.00  0.00     0.000 C
ENDBRANCH  36  38
ENDBRANCH  35  36
ENDBRANCH  34  35
ENDBRANCH  33  34
ENDBRANCH  32  33
ENDBRANCH   1  32
TORSDOF 1
ENDMDL
MODEL 6
REMARK VINA RESULT:      -7.8      1.706      4.420
REMARK SMILES CC(C)(C)[C@H]1NC(=O)c2c[nH]c3ncc(nc23)[C@]2(CCOCNC[C@@]3(C#N)CN(C3)C1=O)CC2
REMARK SMILES IDX 18 1 34 2 33 3 15 4 9 5 10 6 17 7 11 8 16 9 12 10 13 11
REMARK SMILES IDX 14 12 7 14 6 15 8 16 5 18 2 19 1 20 3 21 4 22 31 23 32 24
REMARK SMILES IDX 29 25 30 26 28 27 25 28 26 29 27 30 19 32 20 33 21 34 22 35
REMARK SMILES IDX 23 36 24 38
REMARK H PARENT 11 13 6 17 23 37
REMARK Flexibility Score:  181.900
ROOT
ATOM      1  C   UNL     1      32.739   9.813  -2.754  1.00  0.00     0.016 C
ATOM      2  C   UNL     1      33.565   8.540  -2.620  1.00  0.00     0.014 C
ATOM      3  C   UNL     1      32.693   8.973  -1.484  1.00  0.00     0.014 C
ENDROOT
BRANCH   1   4
ATOM      4  C   UNL     1      31.494   9.818  -3.642  1.00  0.00     0.066 A
ATOM      5  C   UNL     1      28.761  11.948  -4.896  1.00  0.00     0.085 A
ATOM      6  C   UNL     1      27.865  11.347  -5.777  1.00  0.00     0.100 A
ATOM      7  C   UNL     1      29.700  10.935  -4.533  1.00  0.00     0.120 A
ATOM      8  N   UNL     1      28.247  10.040  -5.965  1.00  0.00    -0.344 N
ATOM      9  N   UNL     1      30.779  10.970  -3.709  1.00  0.00    -0.246 NA
ATOM     10  C   UNL     1      29.367   9.782  -5.233  1.00  0.00     0.156 A
ATOM     11  N   UNL     1      30.033   8.612  -5.212  1.00  0.00    -0.235 NA
ATOM     12  C   UNL     1      31.114   8.696  -4.391  1.00  0.00     0.138 A
ATOM     13  H   UNL     1      27.794   9.360  -6.559  1.00  0.00     0.168 HD
BRANCH   5  14
ATOM     14  C   UNL     1      28.765  13.334  -4.445  1.00  0.00     0.255 C
ATOM     15  N   UNL     1      28.843  14.275  -5.453  1.00  0.00    -0.340 N
ATOM     16  O   UNL     1      28.758  13.656  -3.261  1.00  0.00    -0.269 OA
ATOM     17  H   UNL     1      29.035  13.954  -6.392  1.00  0.00     0.164 HD
BRANCH  15  18
ATOM     18  C   UNL     1      29.125  15.680  -5.155  1.00  0.00     0.177 C
BRANCH  18  19
ATOM     19  C   UNL     1      28.017  16.651  -5.661  1.00  0.00    -0.009 C
ATOM     20  C   UNL     1      26.634  16.054  -5.321  1.00  0.00     0.013 C
ATOM     21  C   UNL     1      28.146  18.000  -4.927  1.00  0.00     0.013 C
ATOM     22  C   UNL     1      28.064  16.913  -7.178  1.00  0.00     0.013 C
ENDBRANCH  18  19
BRANCH  18  23
ATOM     23  C   UNL     1      30.516  15.924  -5.781  1.00  0.00     0.245 C
ATOM     24  O   UNL     1      31.120  15.031  -6.383  1.00  0.00    -0.272 OA
BRANCH  23  25
ATOM     25  N   UNL     1      31.094  17.138  -5.548  1.00  0.00    -0.337 N
ATOM     26  C   UNL     1      31.402  18.204  -6.488  1.00  0.00     0.145 C
ATOM     27  C   UNL     1      31.848  17.729  -4.462  1.00  0.00     0.145 C
ATOM     28  C   UNL     1      32.585  18.557  -5.552  1.00  0.00     0.105 C
ATOM     29  C   UNL     1      32.697  19.961  -5.219  1.00  0.00     0.074 C
ATOM     30  N   UNL     1      32.777  21.084  -4.933  1.00  0.00    -0.198 NA
ATOM     31  G   UNL     1      33.938  17.928  -5.936  1.00  0.00     0.000 C
ENDBRANCH  23  25
ENDBRANCH  18  23
ENDBRANCH  15  18
ENDBRANCH   5  14
ENDBRANCH   1   4
BRANCH   1  32
ATOM     32  C   UNL     1      33.468  11.148  -2.693  1.00  0.00     0.042 C
BRANCH  32  33
ATOM     33  C   UNL     1      33.513  11.855  -4.052  1.00  0.00     0.163 C
BRANCH  33  34
ATOM     34  O   UNL     1      33.186  13.240  -3.931  1.00  0.00    -0.366 OA
BRANCH  34  35
ATOM     35  C   UNL     1      34.037  13.941  -3.037  1.00  0.00     0.244 C
BRANCH  35  36
ATOM     36  N   UNL     1      33.306  15.028  -2.397  1.00  0.00    -0.293 NA
ATOM     37  H   UNL     1      33.935  15.396  -1.681  1.00  0.00     0.125 HD
BRANCH  36  38
ATOM     38  C   UNL     1      32.077  14.535  -1.753  1.00  0.00     0.109 C
ATOM     39  G   UNL     1      30.928  15.560  -1.813  1.00  0.00     0.000 C
ENDBRANCH  36  38
ENDBRANCH  35  36
ENDBRANCH  34  35
ENDBRANCH  33  34
ENDBRANCH  32  33
ENDBRANCH   1  32
TORSDOF 1
ENDMDL
MODEL 7
REMARK VINA RESULT:      -7.8      1.698      1.997
REMARK SMILES CC(C)(C)[C@H]1NC(=O)c2c[nH]c3ncc(nc23)[C@]2(CCOCNC[C@@]3(C#N)CN(C3)C1=O)CC2
REMARK SMILES IDX 18 1 34 2 33 3 15 4 9 5 10 6 17 7 11 8 16 9 12 10 13 11
REMARK SMILES IDX 14 12 7 14 6 15 8 16 5 18 2 19 1 20 3 21 4 22 31 23 32 24
REMARK SMILES IDX 29 25 30 26 28 27 25 28 26 29 27 30 19 32 20 33 21 34 22 35
REMARK SMILES IDX 23 36 24 38
REMARK H PARENT 11 13 6 17 23 37
REMARK Flexibility Score:  181.900
ROOT
ATOM      1  C   UNL     1      31.627   9.771  -3.234  1.00  0.00     0.016 C
ATOM      2  C   UNL     1      31.428   8.813  -2.066  1.00  0.00     0.014 C
ATOM      3  C   UNL     1      32.219   8.368  -3.254  1.00  0.00     0.014 C
ENDROOT
BRANCH   1   4
ATOM      4  C   UNL     1      32.597  10.945  -3.094  1.00  0.00     0.066 A
ATOM      5  C   UNL     1      32.804  14.623  -3.031  1.00  0.00     0.085 A
ATOM      6  C   UNL     1      34.069  15.166  -2.823  1.00  0.00     0.100 A
ATOM      7  C   UNL     1      32.978  13.206  -3.041  1.00  0.00     0.120 A
ATOM      8  N   UNL     1      34.970  14.137  -2.688  1.00  0.00    -0.344 N
ATOM      9  N   UNL     1      32.084  12.196  -3.202  1.00  0.00    -0.246 NA
ATOM     10  C   UNL     1      34.321  12.944  -2.798  1.00  0.00     0.156 A
ATOM     11  N   UNL     1      34.891  11.731  -2.677  1.00  0.00    -0.235 NA
ATOM     12  C   UNL     1      33.959  10.751  -2.826  1.00  0.00     0.138 A
ATOM     13  H   UNL     1      35.962  14.223  -2.517  1.00  0.00     0.168 HD
BRANCH   5  14
ATOM     14  C   UNL     1      31.546  15.342  -3.187  1.00  0.00     0.255 C
ATOM     15  N   UNL     1      30.960  15.228  -4.431  1.00  0.00    -0.340 N
ATOM     16  O   UNL     1      31.060  16.045  -2.306  1.00  0.00    -0.269 OA
ATOM     17  H   UNL     1      31.493  14.794  -5.173  1.00  0.00     0.164 HD
BRANCH  15  18
ATOM     18  C   UNL     1      29.850  16.096  -4.827  1.00  0.00     0.177 C
BRANCH  18  19
ATOM     19  C   UNL     1      28.590  15.309  -5.298  1.00  0.00    -0.009 C
ATOM     20  C   UNL     1      28.238  14.247  -4.235  1.00  0.00     0.013 C
ATOM     21  C   UNL     1      27.396  16.278  -5.415  1.00  0.00     0.013 C
ATOM     22  C   UNL     1      28.772  14.593  -6.648  1.00  0.00     0.013 C
ENDBRANCH  18  19
BRANCH  18  23
ATOM     23  C   UNL     1      30.460  17.020  -5.904  1.00  0.00     0.245 C
ATOM     24  O   UNL     1      30.663  16.623  -7.055  1.00  0.00    -0.272 OA
BRANCH  23  25
ATOM     25  N   UNL     1      30.862  18.259  -5.500  1.00  0.00    -0.337 N
ATOM     26  C   UNL     1      30.653  19.548  -6.142  1.00  0.00     0.145 C
ATOM     27  C   UNL     1      31.818  18.770  -4.540  1.00  0.00     0.145 C
ATOM     28  C   UNL     1      31.998  19.976  -5.504  1.00  0.00     0.105 C
ATOM     29  C   UNL     1      31.968  21.254  -4.826  1.00  0.00     0.074 C
ATOM     30  N   UNL     1      31.942  22.270  -4.264  1.00  0.00    -0.198 NA
ATOM     31  G   UNL     1      33.236  19.811  -6.406  1.00  0.00     0.000 C
ENDBRANCH  23  25
ENDBRANCH  18  23
ENDBRANCH  15  18
ENDBRANCH   5  14
ENDBRANCH   1   4
BRANCH   1  32
ATOM     32  C   UNL     1      30.436  10.050  -4.141  1.00  0.00     0.042 C
BRANCH  32  33
ATOM     33  C   UNL     1      30.315   9.032  -5.281  1.00  0.00     0.163 C
BRANCH  33  34
ATOM     34  O   UNL     1      28.951   8.824  -5.651  1.00  0.00    -0.366 OA
BRANCH  34  35
ATOM     35  C   UNL     1      28.783   8.517  -7.027  1.00  0.00     0.244 C
BRANCH  35  36
ATOM     36  N   UNL     1      28.095   9.609  -7.703  1.00  0.00    -0.293 NA
ATOM     37  H   UNL     1      28.211  10.423  -7.096  1.00  0.00     0.125 HD
BRANCH  36  38
ATOM     38  C   UNL     1      26.659   9.320  -7.853  1.00  0.00     0.109 C
ATOM     39  G   UNL     1      26.132   9.667  -9.259  1.00  0.00     0.000 C
ENDBRANCH  36  38
ENDBRANCH  35  36
ENDBRANCH  34  35
ENDBRANCH  33  34
ENDBRANCH  32  33
ENDBRANCH   1  32
TORSDOF 1
ENDMDL
MODEL 8
REMARK VINA RESULT:      -7.8      2.184      2.694
REMARK SMILES CC(C)(C)[C@H]1NC(=O)c2c[nH]c3ncc(nc23)[C@]2(CCOCNC[C@@]3(C#N)CN(C3)C1=O)CC2
REMARK SMILES IDX 18 1 34 2 33 3 15 4 9 5 10 6 17 7 11 8 16 9 12 10 13 11
REMARK SMILES IDX 14 12 7 14 6 15 8 16 5 18 2 19 1 20 3 21 4 22 31 23 32 24
REMARK SMILES IDX 29 25 30 26 28 27 25 28 26 29 27 30 19 32 20 33 21 34 22 35
REMARK SMILES IDX 23 36 24 38
REMARK H PARENT 11 13 6 17 23 37
REMARK Flexibility Score:  181.900
ROOT
ATOM      1  C   UNL     1      32.607   9.725  -2.852  1.00  0.00     0.016 C
ATOM      2  C   UNL     1      32.425   8.913  -1.576  1.00  0.00     0.014 C
ATOM      3  C   UNL     1      33.399   8.447  -2.611  1.00  0.00     0.014 C
ENDROOT
BRANCH   1   4
ATOM      4  C   UNL     1      33.372  11.049  -2.804  1.00  0.00     0.066 A
ATOM      5  C   UNL     1      32.977  14.706  -3.015  1.00  0.00     0.085 A
ATOM      6  C   UNL     1      34.135  15.462  -2.854  1.00  0.00     0.100 A
ATOM      7  C   UNL     1      33.379  13.339  -2.921  1.00  0.00     0.120 A
ATOM      8  N   UNL     1      35.191  14.606  -2.647  1.00  0.00    -0.344 N
ATOM      9  N   UNL     1      32.663  12.188  -3.002  1.00  0.00    -0.246 NA
ATOM     10  C   UNL     1      34.745  13.319  -2.665  1.00  0.00     0.156 A
ATOM     11  N   UNL     1      35.505  12.227  -2.457  1.00  0.00    -0.235 NA
ATOM     12  C   UNL     1      34.746  11.100  -2.529  1.00  0.00     0.138 A
ATOM     13  H   UNL     1      36.154  14.866  -2.488  1.00  0.00     0.168 HD
BRANCH   5  14
ATOM     14  C   UNL     1      31.620  15.197  -3.218  1.00  0.00     0.255 C
ATOM     15  N   UNL     1      30.983  14.704  -4.340  1.00  0.00    -0.340 N
ATOM     16  O   UNL     1      31.089  16.028  -2.487  1.00  0.00    -0.269 OA
ATOM     17  H   UNL     1      31.529  14.172  -5.004  1.00  0.00     0.164 HD
BRANCH  15  18
ATOM     18  C   UNL     1      29.736  15.298  -4.823  1.00  0.00     0.177 C
BRANCH  18  19
ATOM     19  C   UNL     1      28.700  14.242  -5.312  1.00  0.00    -0.009 C
ATOM     20  C   UNL     1      29.210  12.833  -4.941  1.00  0.00     0.013 C
ATOM     21  C   UNL     1      27.358  14.468  -4.587  1.00  0.00     0.013 C
ATOM     22  C   UNL     1      28.447  14.275  -6.831  1.00  0.00     0.013 C
ENDBRANCH  18  19
BRANCH  18  23
ATOM     23  C   UNL     1      30.191  16.292  -5.915  1.00  0.00     0.245 C
ATOM     24  O   UNL     1      31.253  16.139  -6.526  1.00  0.00    -0.272 OA
BRANCH  23  25
ATOM     25  N   UNL     1      29.421  17.403  -6.099  1.00  0.00    -0.337 N
ATOM     26  C   UNL     1      28.697  18.193  -5.114  1.00  0.00     0.145 C
ATOM     27  C   UNL     1      28.795  18.047  -7.236  1.00  0.00     0.145 C
ATOM     28  C   UNL     1      27.685  18.500  -6.247  1.00  0.00     0.105 C
ATOM     29  C   UNL     1      27.338  19.898  -6.386  1.00  0.00     0.074 C
ATOM     30  N   UNL     1      27.072  21.021  -6.514  1.00  0.00    -0.198 NA
ATOM     31  G   UNL     1      26.455  17.574  -6.299  1.00  0.00     0.000 C
ENDBRANCH  23  25
ENDBRANCH  18  23
ENDBRANCH  15  18
ENDBRANCH   5  14
ENDBRANCH   1   4
BRANCH   1  32
ATOM     32  C   UNL     1      31.495   9.685  -3.891  1.00  0.00     0.042 C
BRANCH  32  33
ATOM     33  C   UNL     1      31.040   8.256  -4.208  1.00  0.00     0.163 C
BRANCH  33  34
ATOM     34  O   UNL     1      29.933   8.250  -5.111  1.00  0.00    -0.366 OA
BRANCH  34  35
ATOM     35  C   UNL     1      29.548   6.946  -5.518  1.00  0.00     0.244 C
BRANCH  35  36
ATOM     36  N   UNL     1      28.829   7.007  -6.784  1.00  0.00    -0.293 NA
ATOM     37  H   UNL     1      29.068   6.144  -7.276  1.00  0.00     0.125 HD
BRANCH  36  38
ATOM     38  C   UNL     1      29.267   8.159  -7.589  1.00  0.00     0.109 C
ATOM     39  G   UNL     1      28.396   8.369  -8.842  1.00  0.00     0.000 C
ENDBRANCH  36  38
ENDBRANCH  35  36
ENDBRANCH  34  35
ENDBRANCH  33  34
ENDBRANCH  32  33
ENDBRANCH   1  32
TORSDOF 1
ENDMDL
MODEL 9
REMARK VINA RESULT:      -7.8      0.815      1.373
REMARK SMILES CC(C)(C)[C@H]1NC(=O)c2c[nH]c3ncc(nc23)[C@]2(CCOCNC[C@@]3(C#N)CN(C3)C1=O)CC2
REMARK SMILES IDX 18 1 34 2 33 3 15 4 9 5 10 6 17 7 11 8 16 9 12 10 13 11
REMARK SMILES IDX 14 12 7 14 6 15 8 16 5 18 2 19 1 20 3 21 4 22 31 23 32 24
REMARK SMILES IDX 29 25 30 26 28 27 25 28 26 29 27 30 19 32 20 33 21 34 22 35
REMARK SMILES IDX 23 36 24 38
REMARK H PARENT 11 13 6 17 23 37
REMARK Flexibility Score:  181.900
ROOT
ATOM      1  C   UNL     1      32.799   9.782  -2.834  1.00  0.00     0.016 C
ATOM      2  C   UNL     1      32.677   9.033  -1.514  1.00  0.00     0.014 C
ATOM      3  C   UNL     1      33.807   8.711  -2.439  1.00  0.00     0.014 C
ENDROOT
BRANCH   1   4
ATOM      4  C   UNL     1      33.279  11.235  -2.839  1.00  0.00     0.066 A
ATOM      5  C   UNL     1      32.153  14.722  -3.221  1.00  0.00     0.085 A
ATOM      6  C   UNL     1      33.131  15.705  -3.083  1.00  0.00     0.100 A
ATOM      7  C   UNL     1      32.823  13.471  -3.061  1.00  0.00     0.120 A
ATOM      8  N   UNL     1      34.334  15.091  -2.825  1.00  0.00    -0.344 N
ATOM      9  N   UNL     1      32.357  12.196  -3.096  1.00  0.00    -0.246 NA
ATOM     10  C   UNL     1      34.159  13.740  -2.790  1.00  0.00     0.156 A
ATOM     11  N   UNL     1      35.120  12.836  -2.524  1.00  0.00    -0.235 NA
ATOM     12  C   UNL     1      34.608  11.577  -2.552  1.00  0.00     0.138 A
ATOM     13  H   UNL     1      35.221  15.548  -2.668  1.00  0.00     0.168 HD
BRANCH   5  14
ATOM     14  C   UNL     1      30.729  14.917  -3.461  1.00  0.00     0.255 C
ATOM     15  N   UNL     1      30.421  15.917  -4.362  1.00  0.00    -0.340 N
ATOM     16  O   UNL     1      29.855  14.287  -2.872  1.00  0.00    -0.269 OA
ATOM     17  H   UNL     1      31.166  16.526  -4.673  1.00  0.00     0.164 HD
BRANCH  15  18
ATOM     18  C   UNL     1      29.051  16.410  -4.505  1.00  0.00     0.177 C
BRANCH  18  19
ATOM     19  C   UNL     1      28.292  15.780  -5.710  1.00  0.00    -0.009 C
ATOM     20  C   UNL     1      27.410  16.863  -6.368  1.00  0.00     0.013 C
ATOM     21  C   UNL     1      29.312  15.295  -6.760  1.00  0.00     0.013 C
ATOM     22  C   UNL     1      27.386  14.595  -5.326  1.00  0.00     0.013 C
ENDBRANCH  18  19
BRANCH  18  23
ATOM     23  C   UNL     1      29.211  17.945  -4.589  1.00  0.00     0.245 C
ATOM     24  O   UNL     1      28.294  18.708  -4.270  1.00  0.00    -0.272 OA
BRANCH  23  25
ATOM     25  N   UNL     1      30.370  18.417  -5.130  1.00  0.00    -0.337 N
ATOM     26  C   UNL     1      30.670  18.748  -6.515  1.00  0.00     0.145 C
ATOM     27  C   UNL     1      31.750  18.504  -4.697  1.00  0.00     0.145 C
ATOM     28  C   UNL     1      32.131  18.342  -6.195  1.00  0.00     0.105 C
ATOM     29  C   UNL     1      33.133  19.291  -6.631  1.00  0.00     0.074 C
ATOM     30  N   UNL     1      33.938  20.060  -6.962  1.00  0.00    -0.198 NA
ATOM     31  G   UNL     1      32.500  16.887  -6.541  1.00  0.00     0.000 C
ENDBRANCH  23  25
ENDBRANCH  18  23
ENDBRANCH  15  18
ENDBRANCH   5  14
ENDBRANCH   1   4
BRANCH   1  32
ATOM     32  C   UNL     1      31.808   9.449  -3.940  1.00  0.00     0.042 C
BRANCH  32  33
ATOM     33  C   UNL     1      30.880  10.622  -4.270  1.00  0.00     0.163 C
BRANCH  33  34
ATOM     34  O   UNL     1      29.540  10.363  -3.845  1.00  0.00    -0.366 OA
BRANCH  34  35
ATOM     35  C   UNL     1      28.572  10.630  -4.848  1.00  0.00     0.244 C
BRANCH  35  36
ATOM     36  N   UNL     1      27.682   9.486  -5.002  1.00  0.00    -0.293 NA
ATOM     37  H   UNL     1      28.075   8.752  -4.409  1.00  0.00     0.125 HD
BRANCH  36  38
ATOM     38  C   UNL     1      27.655   9.018  -6.397  1.00  0.00     0.109 C
ATOM     39  G   UNL     1      29.001   8.417  -6.844  1.00  0.00     0.000 C
ENDBRANCH  36  38
ENDBRANCH  35  36
ENDBRANCH  34  35
ENDBRANCH  33  34
ENDBRANCH  32  33
ENDBRANCH   1  32
TORSDOF 1
ENDMDL
