MODEL 1
REMARK VINA RESULT:      -8.2      0.000      0.000
REMARK SMILES N#CC1CN(C(=O)[C@@H]2NC(=O)c3c[nH]c4ncc(nc34)[C@]3(CCOCC[C@]24CC4)CC3)C1
REMARK SMILES IDX 12 1 13 2 14 3 15 4 16 5 17 6 18 7 19 8 20 9 10 11 9 12
REMARK SMILES IDX 11 13 8 15 6 16 1 17 2 18 3 19 4 20 32 21 5 22 7 23 27 24
REMARK SMILES IDX 28 25 29 26 26 27 21 29 30 30 31 31 22 32 23 33 24 34 25 35
REMARK H PARENT 14 10 9 14
REMARK Flexibility Score:   64.900
ROOT
ATOM      1  C   UNL     1      34.512  12.050  -2.402  1.00  0.00     0.085 A
ATOM      2  C   UNL     1      35.605  11.607  -1.668  1.00  0.00     0.100 A
ATOM      3  N   UNL     1      35.488  10.249  -1.482  1.00  0.00    -0.344 N
ATOM      4  C   UNL     1      34.345   9.802  -2.084  1.00  0.00     0.156 A
ATOM      5  N   UNL     1      33.890   8.538  -2.103  1.00  0.00    -0.235 NA
ATOM      6  C   UNL     1      32.721   8.458  -2.804  1.00  0.00     0.138 A
ATOM      7  C   UNL     1      32.061   9.524  -3.441  1.00  0.00     0.066 A
ATOM      8  N   UNL     1      32.579  10.778  -3.378  1.00  0.00    -0.246 NA
ATOM      9  C   UNL     1      33.734  10.895  -2.676  1.00  0.00     0.120 A
ATOM     10  H   UNL     1      36.124   9.656  -0.966  1.00  0.00     0.168 HD
ENDROOT
BRANCH   1  11
ATOM     11  C   UNL     1      34.241  13.427  -2.793  1.00  0.00     0.255 C
ATOM     12  N   UNL     1      32.960  13.635  -3.244  1.00  0.00    -0.340 N
ATOM     13  O   UNL     1      35.087  14.311  -2.716  1.00  0.00    -0.269 OA
ATOM     14  H   UNL     1      32.338  12.834  -3.286  1.00  0.00     0.164 HD
BRANCH  12  15
ATOM     15  C   UNL     1      32.437  14.929  -3.633  1.00  0.00     0.178 C
BRANCH  15  16
ATOM     16  C   UNL     1      32.494  15.281  -5.150  1.00  0.00     0.245 C
ATOM     17  N   UNL     1      34.492  20.208  -6.912  1.00  0.00    -0.198 NA
ATOM     18  C   UNL     1      33.658  19.444  -6.662  1.00  0.00     0.069 C
ATOM     19  C   UNL     1      32.629  18.494  -6.311  1.00  0.00     0.131 C
ATOM     20  C   UNL     1      32.783  17.868  -4.915  1.00  0.00     0.140 C
ATOM     21  C   UNL     1      32.794  17.086  -6.901  1.00  0.00     0.140 C
ATOM     22  N   UNL     1      32.631  16.579  -5.548  1.00  0.00    -0.338 N
ATOM     23  O   UNL     1      32.403  14.393  -6.005  1.00  0.00    -0.272 OA
ENDBRANCH  15  16
BRANCH  15  24
ATOM     24  C   UNL     1      31.003  15.043  -3.071  1.00  0.00     0.002 C
ATOM     25  C   UNL     1      30.835  15.645  -1.682  1.00  0.00     0.010 C
ATOM     26  C   UNL     1      30.450  16.447  -2.885  1.00  0.00     0.010 C
BRANCH  24  27
ATOM     27  C   UNL     1      30.016  13.965  -3.522  1.00  0.00     0.038 C
ATOM     28  G   UNL     1      29.039  14.431  -4.601  1.00  0.00     0.000 C
ENDBRANCH  24  27
ENDBRANCH  15  24
ENDBRANCH  12  15
ENDBRANCH   1  11
BRANCH   7  29
ATOM     29  C   UNL     1      30.753   9.372  -4.239  1.00  0.00     0.016 C
ATOM     30  C   UNL     1      29.615  10.304  -3.842  1.00  0.00     0.014 C
ATOM     31  C   UNL     1      30.249  10.440  -5.194  1.00  0.00     0.014 C
BRANCH  29  32
ATOM     32  C   UNL     1      30.358   7.929  -4.545  1.00  0.00     0.042 C
BRANCH  32  33
ATOM     33  C   UNL     1      29.781   7.742  -5.949  1.00  0.00     0.161 C
BRANCH  33  34
ATOM     34  O   UNL     1      28.506   7.097  -5.875  1.00  0.00    -0.381 OA
BRANCH  34  35
ATOM     35  C   UNL     1      27.431   7.905  -6.366  1.00  0.00     0.161 C
ATOM     36  G   UNL     1      26.578   8.388  -5.193  1.00  0.00     0.000 C
ENDBRANCH  34  35
ENDBRANCH  33  34
ENDBRANCH  32  33
ENDBRANCH  29  32
ENDBRANCH   7  29
TORSDOF 1
ENDMDL
MODEL 2
REMARK VINA RESULT:      -8.1      0.689      1.178
REMARK SMILES N#CC1CN(C(=O)[C@@H]2NC(=O)c3c[nH]c4ncc(nc34)[C@]3(CCOCC[C@]24CC4)CC3)C1
REMARK SMILES IDX 12 1 13 2 14 3 15 4 16 5 17 6 18 7 19 8 20 9 10 11 9 12
REMARK SMILES IDX 11 13 8 15 6 16 1 17 2 18 3 19 4 20 32 21 5 22 7 23 27 24
REMARK SMILES IDX 28 25 29 26 26 27 21 29 30 30 31 31 22 32 23 33 24 34 25 35
REMARK H PARENT 14 10 9 14
REMARK Flexibility Score:   64.900
ROOT
ATOM      1  C   UNL     1      34.397  12.588  -2.549  1.00  0.00     0.085 A
ATOM      2  C   UNL     1      35.497  12.190  -1.799  1.00  0.00     0.100 A
ATOM      3  N   UNL     1      35.408  10.835  -1.574  1.00  0.00    -0.344 N
ATOM      4  C   UNL     1      34.278  10.347  -2.168  1.00  0.00     0.156 A
ATOM      5  N   UNL     1      33.850   9.072  -2.153  1.00  0.00    -0.235 NA
ATOM      6  C   UNL     1      32.686   8.948  -2.856  1.00  0.00     0.138 A
ATOM      7  C   UNL     1      32.006   9.980  -3.526  1.00  0.00     0.066 A
ATOM      8  N   UNL     1      32.497  11.247  -3.496  1.00  0.00    -0.246 NA
ATOM      9  C   UNL     1      33.646  11.409  -2.793  1.00  0.00     0.120 A
ATOM     10  H   UNL     1      36.054  10.270  -1.039  1.00  0.00     0.168 HD
ENDROOT
BRANCH   1  11
ATOM     11  C   UNL     1      34.099  13.947  -2.980  1.00  0.00     0.255 C
ATOM     12  N   UNL     1      32.841  14.097  -3.513  1.00  0.00    -0.340 N
ATOM     13  O   UNL     1      34.903  14.864  -2.867  1.00  0.00    -0.269 OA
ATOM     14  H   UNL     1      32.255  13.272  -3.579  1.00  0.00     0.164 HD
BRANCH  12  15
ATOM     15  C   UNL     1      32.294  15.363  -3.957  1.00  0.00     0.178 C
BRANCH  15  16
ATOM     16  C   UNL     1      32.563  15.763  -5.438  1.00  0.00     0.245 C
ATOM     17  N   UNL     1      34.901  20.684  -6.736  1.00  0.00    -0.198 NA
ATOM     18  C   UNL     1      34.023  19.937  -6.628  1.00  0.00     0.069 C
ATOM     19  C   UNL     1      32.932  19.007  -6.453  1.00  0.00     0.131 C
ATOM     20  C   UNL     1      32.882  18.332  -5.072  1.00  0.00     0.140 C
ATOM     21  C   UNL     1      33.140  17.615  -7.066  1.00  0.00     0.140 C
ATOM     22  N   UNL     1      32.784  17.070  -5.766  1.00  0.00    -0.338 N
ATOM     23  O   UNL     1      32.566  14.907  -6.329  1.00  0.00    -0.272 OA
ENDBRANCH  15  16
BRANCH  15  24
ATOM     24  C   UNL     1      30.785  15.363  -3.628  1.00  0.00     0.002 C
ATOM     25  C   UNL     1      29.940  16.499  -4.189  1.00  0.00     0.010 C
ATOM     26  C   UNL     1      29.830  15.133  -4.789  1.00  0.00     0.010 C
BRANCH  24  27
ATOM     27  C   UNL     1      30.392  14.760  -2.278  1.00  0.00     0.038 C
ATOM     28  G   UNL     1      31.162  15.340  -1.092  1.00  0.00     0.000 C
ENDBRANCH  24  27
ENDBRANCH  15  24
ENDBRANCH  12  15
ENDBRANCH   1  11
BRANCH   7  29
ATOM     29  C   UNL     1      30.705   9.778  -4.324  1.00  0.00     0.016 C
ATOM     30  C   UNL     1      29.490  10.553  -3.831  1.00  0.00     0.014 C
ATOM     31  C   UNL     1      30.085  10.876  -5.169  1.00  0.00     0.014 C
BRANCH  29  32
ATOM     32  C   UNL     1      30.446   8.338  -4.762  1.00  0.00     0.042 C
BRANCH  32  33
ATOM     33  C   UNL     1      29.505   8.230  -5.964  1.00  0.00     0.161 C
BRANCH  33  34
ATOM     34  O   UNL     1      28.304   7.551  -5.588  1.00  0.00    -0.381 OA
BRANCH  34  35
ATOM     35  C   UNL     1      27.131   8.361  -5.715  1.00  0.00     0.161 C
ATOM     36  G   UNL     1      27.253   9.246  -6.955  1.00  0.00     0.000 C
ENDBRANCH  34  35
ENDBRANCH  33  34
ENDBRANCH  32  33
ENDBRANCH  29  32
ENDBRANCH   7  29
TORSDOF 1
ENDMDL
MODEL 3
REMARK VINA RESULT:      -7.9      1.550      2.202
REMARK SMILES N#CC1CN(C(=O)[C@@H]2NC(=O)c3c[nH]c4ncc(nc34)[C@]3(CCOCC[C@]24CC4)CC3)C1
REMARK SMILES IDX 12 1 13 2 14 3 15 4 16 5 17 6 18 7 19 8 20 9 10 11 9 12
REMARK SMILES IDX 11 13 8 15 6 16 1 17 2 18 3 19 4 20 32 21 5 22 7 23 27 24
REMARK SMILES IDX 28 25 29 26 26 27 21 29 30 30 31 31 22 32 23 33 24 34 25 35
REMARK H PARENT 14 10 9 14
REMARK Flexibility Score:   64.900
ROOT
ATOM      1  C   UNL     1      33.872  11.746  -2.816  1.00  0.00     0.085 A
ATOM      2  C   UNL     1      34.847  11.059  -2.103  1.00  0.00     0.100 A
ATOM      3  N   UNL     1      34.497   9.729  -2.049  1.00  0.00    -0.344 N
ATOM      4  C   UNL     1      33.321   9.540  -2.718  1.00  0.00     0.156 A
ATOM      5  N   UNL     1      32.661   8.378  -2.867  1.00  0.00    -0.235 NA
ATOM      6  C   UNL     1      31.523   8.562  -3.600  1.00  0.00     0.138 A
ATOM      7  C   UNL     1      31.076   9.777  -4.148  1.00  0.00     0.066 A
ATOM      8  N   UNL     1      31.793  10.914  -3.953  1.00  0.00    -0.246 NA
ATOM      9  C   UNL     1      32.924  10.769  -3.217  1.00  0.00     0.120 A
ATOM     10  H   UNL     1      35.005   8.993  -1.578  1.00  0.00     0.168 HD
ENDROOT
BRANCH   1  11
ATOM     11  C   UNL     1      33.852  13.179  -3.081  1.00  0.00     0.255 C
ATOM     12  N   UNL     1      32.683  13.620  -3.652  1.00  0.00    -0.340 N
ATOM     13  O   UNL     1      34.795  13.911  -2.807  1.00  0.00    -0.269 OA
ATOM     14  H   UNL     1      31.966  12.931  -3.855  1.00  0.00     0.164 HD
BRANCH  12  15
ATOM     15  C   UNL     1      32.402  15.009  -3.954  1.00  0.00     0.178 C
BRANCH  15  16
ATOM     16  C   UNL     1      32.548  15.448  -5.441  1.00  0.00     0.245 C
ATOM     17  N   UNL     1      34.723  20.428  -6.798  1.00  0.00    -0.198 NA
ATOM     18  C   UNL     1      33.863  19.668  -6.639  1.00  0.00     0.069 C
ATOM     19  C   UNL     1      32.801  18.719  -6.402  1.00  0.00     0.131 C
ATOM     20  C   UNL     1      32.867  18.011  -5.038  1.00  0.00     0.140 C
ATOM     21  C   UNL     1      32.975  17.345  -7.064  1.00  0.00     0.140 C
ATOM     22  N   UNL     1      32.729  16.764  -5.754  1.00  0.00    -0.338 N
ATOM     23  O   UNL     1      32.490  14.613  -6.351  1.00  0.00    -0.272 OA
ENDBRANCH  15  16
BRANCH  15  24
ATOM     24  C   UNL     1      31.000  15.336  -3.395  1.00  0.00     0.002 C
ATOM     25  C   UNL     1      30.840  15.400  -1.881  1.00  0.00     0.010 C
ATOM     26  C   UNL     1      30.841  16.667  -2.677  1.00  0.00     0.010 C
BRANCH  24  27
ATOM     27  C   UNL     1      29.814  14.856  -4.232  1.00  0.00     0.038 C
ATOM     28  G   UNL     1      28.976  15.988  -4.827  1.00  0.00     0.000 C
ENDBRANCH  24  27
ENDBRANCH  15  24
ENDBRANCH  12  15
ENDBRANCH   1  11
BRANCH   7  29
ATOM     29  C   UNL     1      29.793   9.922  -4.987  1.00  0.00     0.016 C
ATOM     30  C   UNL     1      29.637   8.947  -6.146  1.00  0.00     0.014 C
ATOM     31  C   UNL     1      28.691   8.878  -4.984  1.00  0.00     0.014 C
BRANCH  29  32
ATOM     32  C   UNL     1      29.378  11.365  -5.268  1.00  0.00     0.042 C
BRANCH  32  33
ATOM     33  C   UNL     1      27.863  11.572  -5.264  1.00  0.00     0.161 C
BRANCH  33  34
ATOM     34  O   UNL     1      27.524  12.738  -6.019  1.00  0.00    -0.381 OA
BRANCH  34  35
ATOM     35  C   UNL     1      26.370  13.422  -5.521  1.00  0.00     0.161 C
ATOM     36  G   UNL     1      25.602  14.045  -6.688  1.00  0.00     0.000 C
ENDBRANCH  34  35
ENDBRANCH  33  34
ENDBRANCH  32  33
ENDBRANCH  29  32
ENDBRANCH   7  29
TORSDOF 1
ENDMDL
MODEL 4
REMARK VINA RESULT:      -7.9      1.053      1.476
REMARK SMILES N#CC1CN(C(=O)[C@@H]2NC(=O)c3c[nH]c4ncc(nc34)[C@]3(CCOCC[C@]24CC4)CC3)C1
REMARK SMILES IDX 12 1 13 2 14 3 15 4 16 5 17 6 18 7 19 8 20 9 10 11 9 12
REMARK SMILES IDX 11 13 8 15 6 16 1 17 2 18 3 19 4 20 32 21 5 22 7 23 27 24
REMARK SMILES IDX 28 25 29 26 26 27 21 29 30 30 31 31 22 32 23 33 24 34 25 35
REMARK H PARENT 14 10 9 14
REMARK Flexibility Score:   64.900
ROOT
ATOM      1  C   UNL     1      34.358  12.720  -2.625  1.00  0.00     0.085 A
ATOM      2  C   UNL     1      35.473  12.276  -1.926  1.00  0.00     0.100 A
ATOM      3  N   UNL     1      35.368  10.915  -1.750  1.00  0.00    -0.344 N
ATOM      4  C   UNL     1      34.212  10.468  -2.326  1.00  0.00     0.156 A
ATOM      5  N   UNL     1      33.763   9.201  -2.346  1.00  0.00    -0.235 NA
ATOM      6  C   UNL     1      32.576   9.122  -3.017  1.00  0.00     0.138 A
ATOM      7  C   UNL     1      31.893  10.190  -3.625  1.00  0.00     0.066 A
ATOM      8  N   UNL     1      32.406  11.447  -3.563  1.00  0.00    -0.246 NA
ATOM      9  C   UNL     1      33.579  11.563  -2.891  1.00  0.00     0.120 A
ATOM     10  H   UNL     1      36.021  10.320  -1.257  1.00  0.00     0.168 HD
ENDROOT
BRANCH   1  11
ATOM     11  C   UNL     1      34.070  14.100  -2.995  1.00  0.00     0.255 C
ATOM     12  N   UNL     1      32.868  14.261  -3.641  1.00  0.00    -0.340 N
ATOM     13  O   UNL     1      34.835  15.022  -2.741  1.00  0.00    -0.269 OA
ATOM     14  H   UNL     1      32.312  13.432  -3.820  1.00  0.00     0.164 HD
BRANCH  12  15
ATOM     15  C   UNL     1      32.336  15.544  -4.054  1.00  0.00     0.178 C
BRANCH  15  16
ATOM     16  C   UNL     1      32.614  15.978  -5.524  1.00  0.00     0.245 C
ATOM     17  N   UNL     1      35.022  20.898  -6.691  1.00  0.00    -0.198 NA
ATOM     18  C   UNL     1      34.133  20.161  -6.604  1.00  0.00     0.069 C
ATOM     19  C   UNL     1      33.030  19.242  -6.455  1.00  0.00     0.131 C
ATOM     20  C   UNL     1      32.967  18.532  -5.092  1.00  0.00     0.140 C
ATOM     21  C   UNL     1      33.220  17.863  -7.103  1.00  0.00     0.140 C
ATOM     22  N   UNL     1      32.853  17.290  -5.819  1.00  0.00    -0.338 N
ATOM     23  O   UNL     1      32.607  15.145  -6.437  1.00  0.00    -0.272 OA
ENDBRANCH  15  16
BRANCH  15  24
ATOM     24  C   UNL     1      30.826  15.552  -3.730  1.00  0.00     0.002 C
ATOM     25  C   UNL     1      30.025  16.787  -4.124  1.00  0.00     0.010 C
ATOM     26  C   UNL     1      29.870  15.525  -4.912  1.00  0.00     0.010 C
BRANCH  24  27
ATOM     27  C   UNL     1      30.403  14.778  -2.481  1.00  0.00     0.038 C
ATOM     28  G   UNL     1      31.044  15.287  -1.189  1.00  0.00     0.000 C
ENDBRANCH  24  27
ENDBRANCH  15  24
ENDBRANCH  12  15
ENDBRANCH   1  11
BRANCH   7  29
ATOM     29  C   UNL     1      30.566  10.040  -4.390  1.00  0.00     0.016 C
ATOM     30  C   UNL     1      29.376  10.803  -3.822  1.00  0.00     0.014 C
ATOM     31  C   UNL     1      29.932  11.183  -5.162  1.00  0.00     0.014 C
BRANCH  29  32
ATOM     32  C   UNL     1      30.275   8.625  -4.887  1.00  0.00     0.042 C
BRANCH  32  33
ATOM     33  C   UNL     1      29.583   8.592  -6.250  1.00  0.00     0.161 C
BRANCH  33  34
ATOM     34  O   UNL     1      28.892   7.351  -6.421  1.00  0.00    -0.381 OA
BRANCH  34  35
ATOM     35  C   UNL     1      29.330   6.329  -5.520  1.00  0.00     0.161 C
ATOM     36  G   UNL     1      29.102   4.957  -6.155  1.00  0.00     0.000 C
ENDBRANCH  34  35
ENDBRANCH  33  34
ENDBRANCH  32  33
ENDBRANCH  29  32
ENDBRANCH   7  29
TORSDOF 1
ENDMDL
MODEL 5
REMARK VINA RESULT:      -7.9      0.939      1.018
REMARK SMILES N#CC1CN(C(=O)[C@@H]2NC(=O)c3c[nH]c4ncc(nc34)[C@]3(CCOCC[C@]24CC4)CC3)C1
REMARK SMILES IDX 12 1 13 2 14 3 15 4 16 5 17 6 18 7 19 8 20 9 10 11 9 12
REMARK SMILES IDX 11 13 8 15 6 16 1 17 2 18 3 19 4 20 32 21 5 22 7 23 27 24
REMARK SMILES IDX 28 25 29 26 26 27 21 29 30 30 31 31 22 32 23 33 24 34 25 35
REMARK H PARENT 14 10 9 14
REMARK Flexibility Score:   64.900
ROOT
ATOM      1  C   UNL     1      34.444  12.487  -2.488  1.00  0.00     0.085 A
ATOM      2  C   UNL     1      35.600  12.273  -1.747  1.00  0.00     0.100 A
ATOM      3  N   UNL     1      35.682  10.935  -1.438  1.00  0.00    -0.344 N
ATOM      4  C   UNL     1      34.607  10.277  -1.968  1.00  0.00     0.156 A
ATOM      5  N   UNL     1      34.339   8.964  -1.863  1.00  0.00    -0.235 NA
ATOM      6  C   UNL     1      33.184   8.655  -2.523  1.00  0.00     0.138 A
ATOM      7  C   UNL     1      32.368   9.553  -3.234  1.00  0.00     0.066 A
ATOM      8  N   UNL     1      32.701  10.869  -3.296  1.00  0.00    -0.246 NA
ATOM      9  C   UNL     1      33.837  11.213  -2.638  1.00  0.00     0.120 A
ATOM     10  H   UNL     1      36.404  10.488  -0.889  1.00  0.00     0.168 HD
ENDROOT
BRANCH   1  11
ATOM     11  C   UNL     1      33.973  13.770  -2.992  1.00  0.00     0.255 C
ATOM     12  N   UNL     1      32.781  13.696  -3.672  1.00  0.00    -0.340 N
ATOM     13  O   UNL     1      34.590  14.813  -2.814  1.00  0.00    -0.269 OA
ATOM     14  H   UNL     1      32.355  12.781  -3.781  1.00  0.00     0.164 HD
BRANCH  12  15
ATOM     15  C   UNL     1      32.083  14.844  -4.214  1.00  0.00     0.178 C
BRANCH  15  16
ATOM     16  C   UNL     1      32.521  15.326  -5.629  1.00  0.00     0.245 C
ATOM     17  N   UNL     1      34.638  20.451  -6.423  1.00  0.00    -0.198 NA
ATOM     18  C   UNL     1      33.811  19.640  -6.464  1.00  0.00     0.069 C
ATOM     19  C   UNL     1      32.780  18.629  -6.474  1.00  0.00     0.131 C
ATOM     20  C   UNL     1      32.593  17.892  -5.137  1.00  0.00     0.140 C
ATOM     21  C   UNL     1      33.174  17.283  -7.098  1.00  0.00     0.140 C
ATOM     22  N   UNL     1      32.686  16.658  -5.880  1.00  0.00    -0.338 N
ATOM     23  O   UNL     1      32.709  14.512  -6.540  1.00  0.00    -0.272 OA
ENDBRANCH  15  16
BRANCH  15  24
ATOM     24  C   UNL     1      30.570  14.545  -4.153  1.00  0.00     0.002 C
ATOM     25  C   UNL     1      29.883  14.652  -2.797  1.00  0.00     0.010 C
ATOM     26  C   UNL     1      29.653  15.714  -3.826  1.00  0.00     0.010 C
BRANCH  24  27
ATOM     27  C   UNL     1      30.046  13.515  -5.155  1.00  0.00     0.038 C
ATOM     28  G   UNL     1      28.935  14.042  -6.062  1.00  0.00     0.000 C
ENDBRANCH  24  27
ENDBRANCH  15  24
ENDBRANCH  12  15
ENDBRANCH   1  11
BRANCH   7  29
ATOM     29  C   UNL     1      31.085   9.145  -3.981  1.00  0.00     0.016 C
ATOM     30  C   UNL     1      29.884  10.064  -3.799  1.00  0.00     0.014 C
ATOM     31  C   UNL     1      30.529   9.942  -5.147  1.00  0.00     0.014 C
BRANCH  29  32
ATOM     32  C   UNL     1      30.788   7.647  -3.962  1.00  0.00     0.042 C
BRANCH  32  33
ATOM     33  C   UNL     1      30.356   7.098  -5.323  1.00  0.00     0.161 C
BRANCH  33  34
ATOM     34  O   UNL     1      28.961   6.782  -5.305  1.00  0.00    -0.381 OA
BRANCH  34  35
ATOM     35  C   UNL     1      28.413   6.555  -6.607  1.00  0.00     0.161 C
ATOM     36  G   UNL     1      28.939   7.617  -7.573  1.00  0.00     0.000 C
ENDBRANCH  34  35
ENDBRANCH  33  34
ENDBRANCH  32  33
ENDBRANCH  29  32
ENDBRANCH   7  29
TORSDOF 1
ENDMDL
MODEL 6
REMARK VINA RESULT:      -7.7      0.817      1.216
REMARK SMILES N#CC1CN(C(=O)[C@@H]2NC(=O)c3c[nH]c4ncc(nc34)[C@]3(CCOCC[C@]24CC4)CC3)C1
REMARK SMILES IDX 12 1 13 2 14 3 15 4 16 5 17 6 18 7 19 8 20 9 10 11 9 12
REMARK SMILES IDX 11 13 8 15 6 16 1 17 2 18 3 19 4 20 32 21 5 22 7 23 27 24
REMARK SMILES IDX 28 25 29 26 26 27 21 29 30 30 31 31 22 32 23 33 24 34 25 35
REMARK H PARENT 14 10 9 14
REMARK Flexibility Score:   64.900
ROOT
ATOM      1  C   UNL     1      34.351  12.740  -2.576  1.00  0.00     0.085 A
ATOM      2  C   UNL     1      35.457  12.382  -1.815  1.00  0.00     0.100 A
ATOM      3  N   UNL     1      35.396  11.032  -1.559  1.00  0.00    -0.344 N
ATOM      4  C   UNL     1      34.278  10.507  -2.143  1.00  0.00     0.156 A
ATOM      5  N   UNL     1      33.876   9.224  -2.099  1.00  0.00    -0.235 NA
ATOM      6  C   UNL     1      32.717   9.059  -2.801  1.00  0.00     0.138 A
ATOM      7  C   UNL     1      32.017  10.061  -3.496  1.00  0.00     0.066 A
ATOM      8  N   UNL     1      32.481  11.338  -3.495  1.00  0.00    -0.246 NA
ATOM      9  C   UNL     1      33.625  11.540  -2.794  1.00  0.00     0.120 A
ATOM     10  H   UNL     1      36.053  10.493  -1.010  1.00  0.00     0.168 HD
ENDROOT
BRANCH   1  11
ATOM     11  C   UNL     1      34.025  14.083  -3.039  1.00  0.00     0.255 C
ATOM     12  N   UNL     1      32.781  14.185  -3.614  1.00  0.00    -0.340 N
ATOM     13  O   UNL     1      34.797  15.026  -2.915  1.00  0.00    -0.269 OA
ATOM     14  H   UNL     1      32.223  13.341  -3.685  1.00  0.00     0.164 HD
BRANCH  12  15
ATOM     15  C   UNL     1      32.210  15.426  -4.096  1.00  0.00     0.178 C
BRANCH  15  16
ATOM     16  C   UNL     1      32.572  15.846  -5.551  1.00  0.00     0.245 C
ATOM     17  N   UNL     1      34.921  20.812  -6.641  1.00  0.00    -0.198 NA
ATOM     18  C   UNL     1      34.048  20.052  -6.600  1.00  0.00     0.069 C
ATOM     19  C   UNL     1      32.962  19.106  -6.507  1.00  0.00     0.131 C
ATOM     20  C   UNL     1      32.829  18.415  -5.139  1.00  0.00     0.140 C
ATOM     21  C   UNL     1      33.230  17.724  -7.119  1.00  0.00     0.140 C
ATOM     22  N   UNL     1      32.796  17.159  -5.851  1.00  0.00    -0.338 N
ATOM     23  O   UNL     1      32.646  15.000  -6.449  1.00  0.00    -0.272 OA
ENDBRANCH  15  16
BRANCH  15  24
ATOM     24  C   UNL     1      30.683  15.353  -3.882  1.00  0.00     0.002 C
ATOM     25  C   UNL     1      29.923  14.241  -4.593  1.00  0.00     0.010 C
ATOM     26  C   UNL     1      30.154  14.149  -3.118  1.00  0.00     0.010 C
BRANCH  24  27
ATOM     27  C   UNL     1      29.972  16.687  -3.649  1.00  0.00     0.038 C
ATOM     28  G   UNL     1      29.314  17.265  -4.902  1.00  0.00     0.000 C
ENDBRANCH  24  27
ENDBRANCH  15  24
ENDBRANCH  12  15
ENDBRANCH   1  11
BRANCH   7  29
ATOM     29  C   UNL     1      30.722   9.813  -4.291  1.00  0.00     0.016 C
ATOM     30  C   UNL     1      29.495  10.590  -3.832  1.00  0.00     0.014 C
ATOM     31  C   UNL     1      30.091  10.872  -5.178  1.00  0.00     0.014 C
BRANCH  29  32
ATOM     32  C   UNL     1      30.483   8.355  -4.678  1.00  0.00     0.042 C
BRANCH  32  33
ATOM     33  C   UNL     1      29.635   8.195  -5.941  1.00  0.00     0.161 C
BRANCH  33  34
ATOM     34  O   UNL     1      28.385   7.577  -5.619  1.00  0.00    -0.381 OA
BRANCH  34  35
ATOM     35  C   UNL     1      27.257   8.430  -5.839  1.00  0.00     0.161 C
ATOM     36  G   UNL     1      26.892   8.419  -7.324  1.00  0.00     0.000 C
ENDBRANCH  34  35
ENDBRANCH  33  34
ENDBRANCH  32  33
ENDBRANCH  29  32
ENDBRANCH   7  29
TORSDOF 1
ENDMDL
MODEL 7
REMARK VINA RESULT:      -7.7      3.166      7.997
REMARK SMILES N#CC1CN(C(=O)[C@@H]2NC(=O)c3c[nH]c4ncc(nc34)[C@]3(CCOCC[C@]24CC4)CC3)C1
REMARK SMILES IDX 12 1 13 2 14 3 15 4 16 5 17 6 18 7 19 8 20 9 10 11 9 12
REMARK SMILES IDX 11 13 8 15 6 16 1 17 2 18 3 19 4 20 32 21 5 22 7 23 27 24
REMARK SMILES IDX 28 25 29 26 26 27 21 29 30 30 31 31 22 32 23 33 24 34 25 35
REMARK H PARENT 14 10 9 14
REMARK Flexibility Score:   64.900
ROOT
ATOM      1  C   UNL     1      30.840   9.563  -4.085  1.00  0.00     0.085 A
ATOM      2  C   UNL     1      31.469   8.448  -3.545  1.00  0.00     0.100 A
ATOM      3  N   UNL     1      32.652   8.848  -2.967  1.00  0.00    -0.344 N
ATOM      4  C   UNL     1      32.799  10.198  -3.115  1.00  0.00     0.156 A
ATOM      5  N   UNL     1      33.834  10.945  -2.690  1.00  0.00    -0.235 NA
ATOM      6  C   UNL     1      33.639  12.259  -3.005  1.00  0.00     0.138 A
ATOM      7  C   UNL     1      32.523  12.798  -3.668  1.00  0.00     0.066 A
ATOM      8  N   UNL     1      31.514  11.983  -4.071  1.00  0.00    -0.246 NA
ATOM      9  C   UNL     1      31.681  10.667  -3.787  1.00  0.00     0.120 A
ATOM     10  H   UNL     1      33.332   8.251  -2.515  1.00  0.00     0.168 HD
ENDROOT
BRANCH   1  11
ATOM     11  C   UNL     1      29.575   9.569  -4.808  1.00  0.00     0.255 C
ATOM     12  N   UNL     1      29.559   8.740  -5.903  1.00  0.00    -0.340 N
ATOM     13  O   UNL     1      28.620  10.251  -4.457  1.00  0.00    -0.269 OA
ATOM     14  H   UNL     1      30.407   8.227  -6.121  1.00  0.00     0.164 HD
BRANCH  12  15
ATOM     15  C   UNL     1      28.398   8.530  -6.745  1.00  0.00     0.178 C
BRANCH  15  16
ATOM     16  C   UNL     1      28.657   8.386  -8.274  1.00  0.00     0.245 C
ATOM     17  N   UNL     1      26.878  12.267 -11.899  1.00  0.00    -0.198 NA
ATOM     18  C   UNL     1      26.840  11.245 -11.355  1.00  0.00     0.069 C
ATOM     19  C   UNL     1      26.783   9.992 -10.640  1.00  0.00     0.131 C
ATOM     20  C   UNL     1      26.890  10.120  -9.111  1.00  0.00     0.140 C
ATOM     21  C   UNL     1      28.089   9.185 -10.609  1.00  0.00     0.140 C
ATOM     22  N   UNL     1      27.928   9.118  -9.166  1.00  0.00    -0.338 N
ATOM     23  O   UNL     1      29.513   7.600  -8.694  1.00  0.00    -0.272 OA
ENDBRANCH  15  16
BRANCH  15  24
ATOM     24  C   UNL     1      27.620   7.323  -6.178  1.00  0.00     0.002 C
ATOM     25  C   UNL     1      26.233   7.584  -5.602  1.00  0.00     0.010 C
ATOM     26  C   UNL     1      26.364   6.904  -6.928  1.00  0.00     0.010 C
BRANCH  24  27
ATOM     27  C   UNL     1      28.465   6.206  -5.564  1.00  0.00     0.038 C
ATOM     28  G   UNL     1      28.699   5.021  -6.501  1.00  0.00     0.000 C
ENDBRANCH  24  27
ENDBRANCH  15  24
ENDBRANCH  12  15
ENDBRANCH   1  11
BRANCH   7  29
ATOM     29  C   UNL     1      32.346  14.296  -3.978  1.00  0.00     0.016 C
ATOM     30  C   UNL     1      31.897  15.171  -2.816  1.00  0.00     0.014 C
ATOM     31  C   UNL     1      33.261  15.364  -3.407  1.00  0.00     0.014 C
BRANCH  29  32
ATOM     32  C   UNL     1      31.695  14.593  -5.328  1.00  0.00     0.042 C
BRANCH  32  33
ATOM     33  C   UNL     1      32.425  15.672  -6.128  1.00  0.00     0.161 C
BRANCH  33  34
ATOM     34  O   UNL     1      31.482  16.583  -6.699  1.00  0.00    -0.381 OA
BRANCH  34  35
ATOM     35  C   UNL     1      30.955  17.521  -5.754  1.00  0.00     0.161 C
ATOM     36  G   UNL     1      32.090  18.386  -5.207  1.00  0.00     0.000 C
ENDBRANCH  34  35
ENDBRANCH  33  34
ENDBRANCH  32  33
ENDBRANCH  29  32
ENDBRANCH   7  29
TORSDOF 1
ENDMDL
MODEL 8
REMARK VINA RESULT:      -7.6      1.212      1.463
REMARK SMILES N#CC1CN(C(=O)[C@@H]2NC(=O)c3c[nH]c4ncc(nc34)[C@]3(CCOCC[C@]24CC4)CC3)C1
REMARK SMILES IDX 12 1 13 2 14 3 15 4 16 5 17 6 18 7 19 8 20 9 10 11 9 12
REMARK SMILES IDX 11 13 8 15 6 16 1 17 2 18 3 19 4 20 32 21 5 22 7 23 27 24
REMARK SMILES IDX 28 25 29 26 26 27 21 29 30 30 31 31 22 32 23 33 24 34 25 35
REMARK H PARENT 14 10 9 14
REMARK Flexibility Score:   64.900
ROOT
ATOM      1  C   UNL     1      34.370  12.705  -2.510  1.00  0.00     0.085 A
ATOM      2  C   UNL     1      35.510  12.568  -1.727  1.00  0.00     0.100 A
ATOM      3  N   UNL     1      35.633  11.247  -1.358  1.00  0.00    -0.344 N
ATOM      4  C   UNL     1      34.601  10.527  -1.891  1.00  0.00     0.156 A
ATOM      5  N   UNL     1      34.379   9.210  -1.737  1.00  0.00    -0.235 NA
ATOM      6  C   UNL     1      33.257   8.829  -2.417  1.00  0.00     0.138 A
ATOM      7  C   UNL     1      32.431   9.664  -3.189  1.00  0.00     0.066 A
ATOM      8  N   UNL     1      32.715  10.988  -3.298  1.00  0.00    -0.246 NA
ATOM      9  C   UNL     1      33.816  11.403  -2.623  1.00  0.00     0.120 A
ATOM     10  H   UNL     1      36.354  10.852  -0.770  1.00  0.00     0.168 HD
ENDROOT
BRANCH   1  11
ATOM     11  C   UNL     1      33.867  13.947  -3.082  1.00  0.00     0.255 C
ATOM     12  N   UNL     1      32.639  13.822  -3.686  1.00  0.00    -0.340 N
ATOM     13  O   UNL     1      34.490  15.000  -3.018  1.00  0.00    -0.269 OA
ATOM     14  H   UNL     1      32.211  12.902  -3.701  1.00  0.00     0.164 HD
BRANCH  12  15
ATOM     15  C   UNL     1      31.908  14.926  -4.273  1.00  0.00     0.178 C
BRANCH  15  16
ATOM     16  C   UNL     1      32.383  15.416  -5.674  1.00  0.00     0.245 C
ATOM     17  N   UNL     1      34.661  20.487  -6.357  1.00  0.00    -0.198 NA
ATOM     18  C   UNL     1      33.812  19.701  -6.424  1.00  0.00     0.069 C
ATOM     19  C   UNL     1      32.752  18.721  -6.465  1.00  0.00     0.131 C
ATOM     20  C   UNL     1      32.521  17.971  -5.142  1.00  0.00     0.140 C
ATOM     21  C   UNL     1      33.117  17.374  -7.103  1.00  0.00     0.140 C
ATOM     22  N   UNL     1      32.591  16.745  -5.902  1.00  0.00    -0.338 N
ATOM     23  O   UNL     1      32.563  14.610  -6.593  1.00  0.00    -0.272 OA
ENDBRANCH  15  16
BRANCH  15  24
ATOM     24  C   UNL     1      30.410  14.549  -4.275  1.00  0.00     0.002 C
ATOM     25  C   UNL     1      30.053  13.077  -4.438  1.00  0.00     0.010 C
ATOM     26  C   UNL     1      29.909  13.726  -3.098  1.00  0.00     0.010 C
BRANCH  24  27
ATOM     27  C   UNL     1      29.454  15.598  -4.843  1.00  0.00     0.038 C
ATOM     28  G   UNL     1      29.416  16.901  -4.043  1.00  0.00     0.000 C
ENDBRANCH  24  27
ENDBRANCH  15  24
ENDBRANCH  12  15
ENDBRANCH   1  11
BRANCH   7  29
ATOM     29  C   UNL     1      31.187   9.176  -3.955  1.00  0.00     0.016 C
ATOM     30  C   UNL     1      29.925  10.011  -3.784  1.00  0.00     0.014 C
ATOM     31  C   UNL     1      30.594   9.941  -5.124  1.00  0.00     0.014 C
BRANCH  29  32
ATOM     32  C   UNL     1      30.991   7.661  -3.948  1.00  0.00     0.042 C
BRANCH  32  33
ATOM     33  C   UNL     1      30.461   7.113  -5.273  1.00  0.00     0.161 C
BRANCH  33  34
ATOM     34  O   UNL     1      29.096   6.710  -5.127  1.00  0.00    -0.381 OA
BRANCH  34  35
ATOM     35  C   UNL     1      28.907   5.295  -5.231  1.00  0.00     0.161 C
ATOM     36  G   UNL     1      27.534   4.921  -4.673  1.00  0.00     0.000 C
ENDBRANCH  34  35
ENDBRANCH  33  34
ENDBRANCH  32  33
ENDBRANCH  29  32
ENDBRANCH   7  29
TORSDOF 1
ENDMDL
MODEL 9
REMARK VINA RESULT:      -7.5      1.005      1.128
REMARK SMILES N#CC1CN(C(=O)[C@@H]2NC(=O)c3c[nH]c4ncc(nc34)[C@]3(CCOCC[C@]24CC4)CC3)C1
REMARK SMILES IDX 12 1 13 2 14 3 15 4 16 5 17 6 18 7 19 8 20 9 10 11 9 12
REMARK SMILES IDX 11 13 8 15 6 16 1 17 2 18 3 19 4 20 32 21 5 22 7 23 27 24
REMARK SMILES IDX 28 25 29 26 26 27 21 29 30 30 31 31 22 32 23 33 24 34 25 35
REMARK H PARENT 14 10 9 14
REMARK Flexibility Score:   64.900
ROOT
ATOM      1  C   UNL     1      34.216  12.650  -2.580  1.00  0.00     0.085 A
ATOM      2  C   UNL     1      35.324  12.212  -1.865  1.00  0.00     0.100 A
ATOM      3  N   UNL     1      35.217  10.853  -1.679  1.00  0.00    -0.344 N
ATOM      4  C   UNL     1      34.067  10.401  -2.263  1.00  0.00     0.156 A
ATOM      5  N   UNL     1      33.618   9.134  -2.276  1.00  0.00    -0.235 NA
ATOM      6  C   UNL     1      32.438   9.049  -2.959  1.00  0.00     0.138 A
ATOM      7  C   UNL     1      31.762  10.112  -3.583  1.00  0.00     0.066 A
ATOM      8  N   UNL     1      32.274  11.369  -3.526  1.00  0.00    -0.246 NA
ATOM      9  C   UNL     1      33.440  11.491  -2.843  1.00  0.00     0.120 A
ATOM     10  H   UNL     1      35.864  10.262  -1.174  1.00  0.00     0.168 HD
ENDROOT
BRANCH   1  11
ATOM     11  C   UNL     1      33.932  14.026  -2.965  1.00  0.00     0.255 C
ATOM     12  N   UNL     1      32.812  14.163  -3.750  1.00  0.00    -0.340 N
ATOM     13  O   UNL     1      34.632  14.966  -2.608  1.00  0.00    -0.269 OA
ATOM     14  H   UNL     1      32.308  13.321  -4.005  1.00  0.00     0.164 HD
BRANCH  12  15
ATOM     15  C   UNL     1      32.294  15.436  -4.208  1.00  0.00     0.178 C
BRANCH  15  16
ATOM     16  C   UNL     1      32.699  15.882  -5.645  1.00  0.00     0.245 C
ATOM     17  N   UNL     1      34.931  20.929  -6.600  1.00  0.00    -0.198 NA
ATOM     18  C   UNL     1      34.081  20.142  -6.599  1.00  0.00     0.069 C
ATOM     19  C   UNL     1      33.022  19.161  -6.557  1.00  0.00     0.131 C
ATOM     20  C   UNL     1      32.859  18.453  -5.201  1.00  0.00     0.140 C
ATOM     21  C   UNL     1      33.358  17.794  -7.170  1.00  0.00     0.140 C
ATOM     22  N   UNL     1      32.893  17.203  -5.925  1.00  0.00    -0.338 N
ATOM     23  O   UNL     1      32.834  15.047  -6.547  1.00  0.00    -0.272 OA
ENDBRANCH  15  16
BRANCH  15  24
ATOM     24  C   UNL     1      30.761  15.412  -4.025  1.00  0.00     0.002 C
ATOM     25  C   UNL     1      30.204  15.844  -2.675  1.00  0.00     0.010 C
ATOM     26  C   UNL     1      30.070  16.756  -3.853  1.00  0.00     0.010 C
BRANCH  24  27
ATOM     27  C   UNL     1      30.007  14.342  -4.815  1.00  0.00     0.038 C
ATOM     28  G   UNL     1      29.190  14.894  -5.984  1.00  0.00     0.000 C
ENDBRANCH  24  27
ENDBRANCH  15  24
ENDBRANCH  12  15
ENDBRANCH   1  11
BRANCH   7  29
ATOM     29  C   UNL     1      30.442   9.955  -4.359  1.00  0.00     0.016 C
ATOM     30  C   UNL     1      29.300  10.867  -3.931  1.00  0.00     0.014 C
ATOM     31  C   UNL     1      29.908  11.028  -5.292  1.00  0.00     0.014 C
BRANCH  29  32
ATOM     32  C   UNL     1      30.058   8.510  -4.676  1.00  0.00     0.042 C
BRANCH  32  33
ATOM     33  C   UNL     1      29.602   8.307  -6.122  1.00  0.00     0.161 C
BRANCH  33  34
ATOM     34  O   UNL     1      29.397   6.916  -6.381  1.00  0.00    -0.381 OA
BRANCH  34  35
ATOM     35  C   UNL     1      28.332   6.346  -5.613  1.00  0.00     0.161 C
ATOM     36  G   UNL     1      28.764   4.981  -5.077  1.00  0.00     0.000 C
ENDBRANCH  34  35
ENDBRANCH  33  34
ENDBRANCH  32  33
ENDBRANCH  29  32
ENDBRANCH   7  29
TORSDOF 1
ENDMDL
