MODEL 1
REMARK VINA RESULT:      -8.0      0.000      0.000
REMARK SMILES N#C[C@@H]1CCN(C(=O)[C@@H]2NC(=O)c3c[nH]c4ncc(nc34)[C@@H]3C[C@@H]3CNCC23CC3)C1
REMARK SMILES IDX 13 1 14 2 15 3 16 4 17 5 18 6 19 7 20 8 21 9 11 11 10 12
REMARK SMILES IDX 12 13 9 15 7 16 8 17 6 18 1 19 2 20 3 21 4 22 31 23 5 24
REMARK SMILES IDX 28 25 29 26 30 27 22 29 23 30 24 31 25 32 26 33 27 35
REMARK H PARENT 15 10 10 14 26 34
REMARK Flexibility Score:  106.900
ROOT
ATOM      1  C   UNL     1      30.449  13.190  -5.324  1.00  0.00     0.085 A
ATOM      2  C   UNL     1      29.064  13.167  -5.396  1.00  0.00     0.100 A
ATOM      3  N   UNL     1      28.611  12.010  -4.803  1.00  0.00    -0.344 N
ATOM      4  C   UNL     1      29.672  11.284  -4.338  1.00  0.00     0.156 A
ATOM      5  N   UNL     1      29.617  10.121  -3.660  1.00  0.00    -0.235 NA
ATOM      6  C   UNL     1      30.874   9.690  -3.342  1.00  0.00     0.137 A
ATOM      7  C   UNL     1      32.082  10.330  -3.668  1.00  0.00     0.063 A
ATOM      8  N   UNL     1      32.062  11.485  -4.374  1.00  0.00    -0.247 NA
ATOM      9  C   UNL     1      30.826  11.968  -4.682  1.00  0.00     0.120 A
ATOM     10  H   UNL     1      27.646  11.738  -4.681  1.00  0.00     0.168 HD
ENDROOT
BRANCH   1  11
ATOM     11  C   UNL     1      31.326  14.293  -5.723  1.00  0.00     0.255 C
ATOM     12  N   UNL     1      30.731  15.509  -5.536  1.00  0.00    -0.340 N
ATOM     13  O   UNL     1      32.421  14.137  -6.247  1.00  0.00    -0.269 OA
ATOM     14  H   UNL     1      29.940  15.504  -4.903  1.00  0.00     0.164 HD
BRANCH  12  15
ATOM     15  C   UNL     1      31.002  16.729  -6.288  1.00  0.00     0.179 C
BRANCH  15  16
ATOM     16  C   UNL     1      29.670  17.513  -6.516  1.00  0.00     0.245 C
ATOM     17  O   UNL     1      29.642  18.747  -6.554  1.00  0.00    -0.272 OA
BRANCH  16  18
ATOM     18  N   UNL     1      28.508  16.780  -6.659  1.00  0.00    -0.340 N
ATOM     19  N   UNL     1      25.067  14.413  -4.449  1.00  0.00    -0.198 NA
ATOM     20  C   UNL     1      25.653  15.081  -5.194  1.00  0.00     0.067 C
ATOM     21  C   UNL     1      26.377  15.930  -6.140  1.00  0.00     0.114 C
ATOM     22  C   UNL     1      26.946  15.149  -7.326  1.00  0.00     0.042 C
ATOM     23  C   UNL     1      27.626  16.549  -5.527  1.00  0.00     0.138 C
ATOM     24  C   UNL     1      28.054  16.061  -7.838  1.00  0.00     0.121 C
ENDBRANCH  16  18
ENDBRANCH  15  16
BRANCH  15  25
ATOM     25  C   UNL     1      31.966  17.620  -5.442  1.00  0.00     0.012 C
ATOM     26  C   UNL     1      33.461  17.431  -5.649  1.00  0.00     0.012 C
ATOM     27  C   UNL     1      32.797  18.673  -6.162  1.00  0.00     0.012 C
ATOM     28  G   UNL     1      31.493  17.831  -4.011  1.00  0.00     0.000 C
ENDBRANCH  15  25
ENDBRANCH  12  15
ENDBRANCH   1  11
BRANCH   7  29
ATOM     29  C   UNL     1      33.424   9.673  -3.385  1.00  0.00     0.044 C
ATOM     30  C   UNL     1      33.748   9.148  -2.007  1.00  0.00     0.016 C
ATOM     31  C   UNL     1      34.588  10.261  -2.582  1.00  0.00     0.013 C
BRANCH  31  32
ATOM     32  C   UNL     1      34.643  11.561  -1.835  1.00  0.00     0.085 C
BRANCH  32  33
ATOM     33  N   UNL     1      34.726  12.726  -2.742  1.00  0.00    -0.316 NA
ATOM     34  H   UNL     1      35.594  13.217  -2.522  1.00  0.00     0.122 HD
BRANCH  33  35
ATOM     35  C   UNL     1      33.632  13.629  -2.407  1.00  0.00     0.090 C
ATOM     36  G   UNL     1      33.575  15.029  -2.999  1.00  0.00     0.000 C
ENDBRANCH  33  35
ENDBRANCH  32  33
ENDBRANCH  31  32
ENDBRANCH   7  29
TORSDOF 2
ENDMDL
MODEL 2
REMARK VINA RESULT:      -7.9      2.006      5.143
REMARK SMILES N#C[C@@H]1CCN(C(=O)[C@@H]2NC(=O)c3c[nH]c4ncc(nc34)[C@@H]3C[C@@H]3CNCC23CC3)C1
REMARK SMILES IDX 13 1 14 2 15 3 16 4 17 5 18 6 19 7 20 8 21 9 11 11 10 12
REMARK SMILES IDX 12 13 9 15 7 16 8 17 6 18 1 19 2 20 3 21 4 22 31 23 5 24
REMARK SMILES IDX 28 25 29 26 30 27 22 29 23 30 24 31 25 32 26 33 27 35
REMARK H PARENT 15 10 10 14 26 34
REMARK Flexibility Score:  106.900
ROOT
ATOM      1  C   UNL     1      32.102  14.709  -3.200  1.00  0.00     0.085 A
ATOM      2  C   UNL     1      33.008  15.759  -3.244  1.00  0.00     0.100 A
ATOM      3  N   UNL     1      34.270  15.260  -3.010  1.00  0.00    -0.344 N
ATOM      4  C   UNL     1      34.205  13.907  -2.824  1.00  0.00     0.156 A
ATOM      5  N   UNL     1      35.242  13.071  -2.620  1.00  0.00    -0.235 NA
ATOM      6  C   UNL     1      34.804  11.784  -2.490  1.00  0.00     0.137 A
ATOM      7  C   UNL     1      33.468  11.349  -2.543  1.00  0.00     0.063 A
ATOM      8  N   UNL     1      32.474  12.250  -2.726  1.00  0.00    -0.247 NA
ATOM      9  C   UNL     1      32.871  13.542  -2.895  1.00  0.00     0.120 A
ATOM     10  H   UNL     1      35.131  15.787  -3.013  1.00  0.00     0.168 HD
ENDROOT
BRANCH   1  11
ATOM     11  C   UNL     1      30.673  14.776  -3.515  1.00  0.00     0.255 C
ATOM     12  N   UNL     1      30.387  15.805  -4.367  1.00  0.00    -0.340 N
ATOM     13  O   UNL     1      29.828  14.053  -3.002  1.00  0.00    -0.269 OA
ATOM     14  H   UNL     1      31.183  16.170  -4.877  1.00  0.00     0.164 HD
BRANCH  12  15
ATOM     15  C   UNL     1      29.123  16.526  -4.457  1.00  0.00     0.179 C
BRANCH  15  16
ATOM     16  C   UNL     1      29.381  17.976  -4.981  1.00  0.00     0.245 C
ATOM     17  O   UNL     1      28.470  18.805  -5.070  1.00  0.00    -0.272 OA
BRANCH  16  18
ATOM     18  N   UNL     1      30.667  18.303  -5.361  1.00  0.00    -0.340 N
ATOM     19  N   UNL     1      34.111  21.533  -5.169  1.00  0.00    -0.198 NA
ATOM     20  C   UNL     1      33.531  20.529  -5.198  1.00  0.00     0.067 C
ATOM     21  C   UNL     1      32.815  19.255  -5.230  1.00  0.00     0.114 C
ATOM     22  C   UNL     1      32.591  18.732  -6.650  1.00  0.00     0.042 C
ATOM     23  C   UNL     1      31.393  19.374  -4.698  1.00  0.00     0.138 C
ATOM     24  C   UNL     1      31.424  17.768  -6.481  1.00  0.00     0.121 C
ENDBRANCH  16  18
ENDBRANCH  15  16
BRANCH  15  25
ATOM     25  C   UNL     1      28.209  15.782  -5.482  1.00  0.00     0.012 C
ATOM     26  C   UNL     1      27.273  14.711  -4.941  1.00  0.00     0.012 C
ATOM     27  C   UNL     1      26.706  16.015  -5.414  1.00  0.00     0.012 C
ATOM     28  G   UNL     1      28.902  15.483  -6.804  1.00  0.00     0.000 C
ENDBRANCH  15  25
ENDBRANCH  12  15
ENDBRANCH   1  11
BRANCH   7  29
ATOM     29  C   UNL     1      33.096   9.907  -2.236  1.00  0.00     0.044 C
ATOM     30  C   UNL     1      33.471   8.796  -3.189  1.00  0.00     0.016 C
ATOM     31  C   UNL     1      32.013   9.068  -2.920  1.00  0.00     0.013 C
BRANCH  31  32
ATOM     32  C   UNL     1      31.140   9.441  -4.082  1.00  0.00     0.085 C
BRANCH  32  33
ATOM     33  N   UNL     1      29.954  10.221  -3.666  1.00  0.00    -0.316 NA
ATOM     34  H   UNL     1      29.219   9.550  -3.436  1.00  0.00     0.122 HD
BRANCH  33  35
ATOM     35  C   UNL     1      29.491  10.977  -4.822  1.00  0.00     0.090 C
ATOM     36  G   UNL     1      28.006  11.065  -5.146  1.00  0.00     0.000 C
ENDBRANCH  33  35
ENDBRANCH  32  33
ENDBRANCH  31  32
ENDBRANCH   7  29
TORSDOF 2
ENDMDL
MODEL 3
REMARK VINA RESULT:      -7.9      1.840      3.858
REMARK SMILES N#C[C@@H]1CCN(C(=O)[C@@H]2NC(=O)c3c[nH]c4ncc(nc34)[C@@H]3C[C@@H]3CNCC23CC3)C1
REMARK SMILES IDX 13 1 14 2 15 3 16 4 17 5 18 6 19 7 20 8 21 9 11 11 10 12
REMARK SMILES IDX 12 13 9 15 7 16 8 17 6 18 1 19 2 20 3 21 4 22 31 23 5 24
REMARK SMILES IDX 28 25 29 26 30 27 22 29 23 30 24 31 25 32 26 33 27 35
REMARK H PARENT 15 10 10 14 26 34
REMARK Flexibility Score:  106.900
ROOT
ATOM      1  C   UNL     1      29.429  11.528  -4.728  1.00  0.00     0.085 A
ATOM      2  C   UNL     1      28.465  11.156  -5.653  1.00  0.00     0.100 A
ATOM      3  N   UNL     1      28.584   9.805  -5.894  1.00  0.00    -0.344 N
ATOM      4  C   UNL     1      29.601   9.290  -5.139  1.00  0.00     0.156 A
ATOM      5  N   UNL     1      29.980   7.999  -5.072  1.00  0.00    -0.235 NA
ATOM      6  C   UNL     1      31.023   7.848  -4.203  1.00  0.00     0.137 A
ATOM      7  C   UNL     1      31.650   8.870  -3.469  1.00  0.00     0.063 A
ATOM      8  N   UNL     1      31.231  10.149  -3.604  1.00  0.00    -0.247 NA
ATOM      9  C   UNL     1      30.170  10.339  -4.437  1.00  0.00     0.120 A
ATOM     10  H   UNL     1      27.996   9.251  -6.500  1.00  0.00     0.168 HD
ENDROOT
BRANCH   1  11
ATOM     11  C   UNL     1      29.576  12.844  -4.103  1.00  0.00     0.255 C
ATOM     12  N   UNL     1      28.930  13.818  -4.809  1.00  0.00    -0.340 N
ATOM     13  O   UNL     1      30.270  13.056  -3.117  1.00  0.00    -0.269 OA
ATOM     14  H   UNL     1      28.227  13.481  -5.457  1.00  0.00     0.164 HD
BRANCH  12  15
ATOM     15  C   UNL     1      29.285  15.232  -4.856  1.00  0.00     0.179 C
BRANCH  15  16
ATOM     16  C   UNL     1      30.694  15.399  -5.511  1.00  0.00     0.245 C
ATOM     17  O   UNL     1      31.315  14.434  -5.968  1.00  0.00    -0.272 OA
BRANCH  16  18
ATOM     18  N   UNL     1      31.240  16.667  -5.550  1.00  0.00    -0.340 N
ATOM     19  N   UNL     1      30.930  21.120  -3.999  1.00  0.00    -0.198 NA
ATOM     20  C   UNL     1      31.338  20.094  -4.355  1.00  0.00     0.067 C
ATOM     21  C   UNL     1      31.869  18.805  -4.797  1.00  0.00     0.114 C
ATOM     22  C   UNL     1      32.074  18.733  -6.311  1.00  0.00     0.042 C
ATOM     23  C   UNL     1      30.898  17.659  -4.545  1.00  0.00     0.138 C
ATOM     24  C   UNL     1      32.088  17.235  -6.585  1.00  0.00     0.121 C
ENDBRANCH  16  18
ENDBRANCH  15  16
BRANCH  15  25
ATOM     25  C   UNL     1      28.233  15.970  -5.744  1.00  0.00     0.012 C
ATOM     26  C   UNL     1      26.773  15.878  -5.327  1.00  0.00     0.012 C
ATOM     27  C   UNL     1      27.507  17.174  -5.157  1.00  0.00     0.012 C
ATOM     28  G   UNL     1      28.527  15.876  -7.234  1.00  0.00     0.000 C
ENDBRANCH  15  25
ENDBRANCH  12  15
ENDBRANCH   1  11
BRANCH   7  29
ATOM     29  C   UNL     1      32.898   8.595  -2.645  1.00  0.00     0.044 C
ATOM     30  C   UNL     1      33.175   9.378  -1.383  1.00  0.00     0.016 C
ATOM     31  C   UNL     1      34.143   9.480  -2.534  1.00  0.00     0.013 C
BRANCH  31  32
ATOM     32  C   UNL     1      34.382  10.834  -3.136  1.00  0.00     0.085 C
BRANCH  32  33
ATOM     33  N   UNL     1      33.449  11.854  -2.611  1.00  0.00    -0.316 NA
ATOM     34  H   UNL     1      32.533  11.662  -3.019  1.00  0.00     0.122 HD
BRANCH  33  35
ATOM     35  C   UNL     1      33.876  13.151  -3.119  1.00  0.00     0.090 C
ATOM     36  G   UNL     1      33.120  14.417  -2.743  1.00  0.00     0.000 C
ENDBRANCH  33  35
ENDBRANCH  32  33
ENDBRANCH  31  32
ENDBRANCH   7  29
TORSDOF 2
ENDMDL
MODEL 4
REMARK VINA RESULT:      -7.9      2.284      5.670
REMARK SMILES N#C[C@@H]1CCN(C(=O)[C@@H]2NC(=O)c3c[nH]c4ncc(nc34)[C@@H]3C[C@@H]3CNCC23CC3)C1
REMARK SMILES IDX 13 1 14 2 15 3 16 4 17 5 18 6 19 7 20 8 21 9 11 11 10 12
REMARK SMILES IDX 12 13 9 15 7 16 8 17 6 18 1 19 2 20 3 21 4 22 31 23 5 24
REMARK SMILES IDX 28 25 29 26 30 27 22 29 23 30 24 31 25 32 26 33 27 35
REMARK H PARENT 15 10 10 14 26 34
REMARK Flexibility Score:  106.900
ROOT
ATOM      1  C   UNL     1      33.293  13.980  -2.694  1.00  0.00     0.085 A
ATOM      2  C   UNL     1      34.618  14.360  -2.537  1.00  0.00     0.100 A
ATOM      3  N   UNL     1      35.400  13.227  -2.506  1.00  0.00    -0.344 N
ATOM      4  C   UNL     1      34.613  12.118  -2.647  1.00  0.00     0.156 A
ATOM      5  N   UNL     1      35.028  10.839  -2.712  1.00  0.00    -0.235 NA
ATOM      6  C   UNL     1      33.965   9.995  -2.870  1.00  0.00     0.137 A
ATOM      7  C   UNL     1      32.612  10.366  -2.947  1.00  0.00     0.063 A
ATOM      8  N   UNL     1      32.265  11.671  -2.849  1.00  0.00    -0.247 NA
ATOM      9  C   UNL     1      33.299  12.549  -2.725  1.00  0.00     0.120 A
ATOM     10  H   UNL     1      36.407  13.197  -2.433  1.00  0.00     0.168 HD
ENDROOT
BRANCH   1  11
ATOM     11  C   UNL     1      32.148  14.870  -2.897  1.00  0.00     0.255 C
ATOM     12  N   UNL     1      31.794  14.952  -4.214  1.00  0.00    -0.340 N
ATOM     13  O   UNL     1      31.631  15.529  -2.004  1.00  0.00    -0.269 OA
ATOM     14  H   UNL     1      32.147  14.202  -4.798  1.00  0.00     0.164 HD
BRANCH  12  15
ATOM     15  C   UNL     1      31.144  16.083  -4.866  1.00  0.00     0.179 C
BRANCH  15  16
ATOM     16  C   UNL     1      32.118  16.720  -5.908  1.00  0.00     0.245 C
ATOM     17  O   UNL     1      32.682  16.038  -6.770  1.00  0.00    -0.272 OA
BRANCH  16  18
ATOM     18  N   UNL     1      32.348  18.079  -5.828  1.00  0.00    -0.340 N
ATOM     19  N   UNL     1      35.434  21.584  -6.551  1.00  0.00    -0.198 NA
ATOM     20  C   UNL     1      34.457  20.962  -6.478  1.00  0.00     0.067 C
ATOM     21  C   UNL     1      33.218  20.191  -6.394  1.00  0.00     0.114 C
ATOM     22  C   UNL     1      32.551  20.282  -5.020  1.00  0.00     0.042 C
ATOM     23  C   UNL     1      33.454  18.694  -6.543  1.00  0.00     0.138 C
ATOM     24  C   UNL     1      31.660  19.047  -4.988  1.00  0.00     0.121 C
ENDBRANCH  16  18
ENDBRANCH  15  16
BRANCH  15  25
ATOM     25  C   UNL     1      29.884  15.553  -5.620  1.00  0.00     0.012 C
ATOM     26  C   UNL     1      29.749  14.048  -5.794  1.00  0.00     0.012 C
ATOM     27  C   UNL     1      28.848  14.762  -4.833  1.00  0.00     0.012 C
ATOM     28  G   UNL     1      29.481  16.418  -6.806  1.00  0.00     0.000 C
ENDBRANCH  15  25
ENDBRANCH  12  15
ENDBRANCH   1  11
BRANCH   7  29
ATOM     29  C   UNL     1      31.508   9.320  -2.975  1.00  0.00     0.044 C
ATOM     30  C   UNL     1      31.529   8.207  -3.995  1.00  0.00     0.016 C
ATOM     31  C   UNL     1      30.386   9.190  -4.009  1.00  0.00     0.013 C
BRANCH  31  32
ATOM     32  C   UNL     1      30.167   9.999  -5.254  1.00  0.00     0.085 C
BRANCH  32  33
ATOM     33  N   UNL     1      29.347   9.280  -6.253  1.00  0.00    -0.316 NA
ATOM     34  H   UNL     1      29.706   9.534  -7.175  1.00  0.00     0.122 HD
BRANCH  33  35
ATOM     35  C   UNL     1      27.988   9.799  -6.169  1.00  0.00     0.090 C
ATOM     36  G   UNL     1      27.677  11.018  -5.312  1.00  0.00     0.000 C
ENDBRANCH  33  35
ENDBRANCH  32  33
ENDBRANCH  31  32
ENDBRANCH   7  29
TORSDOF 2
ENDMDL
MODEL 5
REMARK VINA RESULT:      -7.8      2.104      4.308
REMARK SMILES N#C[C@@H]1CCN(C(=O)[C@@H]2NC(=O)c3c[nH]c4ncc(nc34)[C@@H]3C[C@@H]3CNCC23CC3)C1
REMARK SMILES IDX 13 1 14 2 15 3 16 4 17 5 18 6 19 7 20 8 21 9 11 11 10 12
REMARK SMILES IDX 12 13 9 15 7 16 8 17 6 18 1 19 2 20 3 21 4 22 31 23 5 24
REMARK SMILES IDX 28 25 29 26 30 27 22 29 23 30 24 31 25 32 26 33 27 35
REMARK H PARENT 15 10 10 14 26 34
REMARK Flexibility Score:  106.900
ROOT
ATOM      1  C   UNL     1      28.693  13.742  -5.753  1.00  0.00     0.085 A
ATOM      2  C   UNL     1      27.340  14.047  -5.725  1.00  0.00     0.100 A
ATOM      3  N   UNL     1      26.639  12.908  -5.397  1.00  0.00    -0.344 N
ATOM      4  C   UNL     1      27.508  11.870  -5.205  1.00  0.00     0.156 A
ATOM      5  N   UNL     1      27.194  10.616  -4.827  1.00  0.00    -0.235 NA
ATOM      6  C   UNL     1      28.319   9.849  -4.720  1.00  0.00     0.137 A
ATOM      7  C   UNL     1      29.638  10.266  -4.971  1.00  0.00     0.063 A
ATOM      8  N   UNL     1      29.877  11.537  -5.372  1.00  0.00    -0.247 NA
ATOM      9  C   UNL     1      28.784  12.345  -5.458  1.00  0.00     0.120 A
ATOM     10  H   UNL     1      25.640  12.836  -5.272  1.00  0.00     0.168 HD
ENDROOT
BRANCH   1  11
ATOM     11  C   UNL     1      29.797  14.687  -5.938  1.00  0.00     0.255 C
ATOM     12  N   UNL     1      30.941  14.259  -5.326  1.00  0.00    -0.340 N
ATOM     13  O   UNL     1      29.680  15.770  -6.498  1.00  0.00    -0.269 OA
ATOM     14  H   UNL     1      30.962  13.271  -5.101  1.00  0.00     0.164 HD
BRANCH  12  15
ATOM     15  C   UNL     1      32.012  15.104  -4.809  1.00  0.00     0.179 C
BRANCH  15  16
ATOM     16  C   UNL     1      31.398  16.339  -4.074  1.00  0.00     0.245 C
ATOM     17  O   UNL     1      30.736  16.215  -3.038  1.00  0.00    -0.272 OA
BRANCH  16  18
ATOM     18  N   UNL     1      31.605  17.587  -4.628  1.00  0.00    -0.340 N
ATOM     19  N   UNL     1      29.598  21.585  -6.149  1.00  0.00    -0.198 NA
ATOM     20  C   UNL     1      30.330  20.821  -5.674  1.00  0.00     0.067 C
ATOM     21  C   UNL     1      31.263  19.872  -5.068  1.00  0.00     0.114 C
ATOM     22  C   UNL     1      32.287  19.325  -6.063  1.00  0.00     0.042 C
ATOM     23  C   UNL     1      30.571  18.606  -4.582  1.00  0.00     0.138 C
ATOM     24  C   UNL     1      32.752  18.033  -5.402  1.00  0.00     0.121 C
ENDBRANCH  16  18
ENDBRANCH  15  16
BRANCH  15  25
ATOM     25  C   UNL     1      32.836  14.270  -3.778  1.00  0.00     0.012 C
ATOM     26  C   UNL     1      32.099  13.194  -2.994  1.00  0.00     0.012 C
ATOM     27  C   UNL     1      33.068  12.792  -4.064  1.00  0.00     0.012 C
ATOM     28  G   UNL     1      33.861  15.095  -3.013  1.00  0.00     0.000 C
ENDBRANCH  15  25
ENDBRANCH  12  15
ENDBRANCH   1  11
BRANCH   7  29
ATOM     29  C   UNL     1      30.793   9.277  -4.959  1.00  0.00     0.044 C
ATOM     30  C   UNL     1      30.573   7.843  -4.540  1.00  0.00     0.016 C
ATOM     31  C   UNL     1      31.506   8.706  -3.729  1.00  0.00     0.013 C
BRANCH  31  32
ATOM     32  C   UNL     1      31.184   8.924  -2.280  1.00  0.00     0.085 C
BRANCH  32  33
ATOM     33  N   UNL     1      32.383   8.834  -1.418  1.00  0.00    -0.316 NA
ATOM     34  H   UNL     1      32.205   9.409  -0.594  1.00  0.00     0.122 HD
BRANCH  33  35
ATOM     35  C   UNL     1      33.493   9.450  -2.134  1.00  0.00     0.090 C
ATOM     36  G   UNL     1      34.917   9.317  -1.616  1.00  0.00     0.000 C
ENDBRANCH  33  35
ENDBRANCH  32  33
ENDBRANCH  31  32
ENDBRANCH   7  29
TORSDOF 2
ENDMDL
MODEL 6
REMARK VINA RESULT:      -7.8      2.249      5.636
REMARK SMILES N#C[C@@H]1CCN(C(=O)[C@@H]2NC(=O)c3c[nH]c4ncc(nc34)[C@@H]3C[C@@H]3CNCC23CC3)C1
REMARK SMILES IDX 13 1 14 2 15 3 16 4 17 5 18 6 19 7 20 8 21 9 11 11 10 12
REMARK SMILES IDX 12 13 9 15 7 16 8 17 6 18 1 19 2 20 3 21 4 22 31 23 5 24
REMARK SMILES IDX 28 25 29 26 30 27 22 29 23 30 24 31 25 32 26 33 27 35
REMARK H PARENT 15 10 10 14 26 34
REMARK Flexibility Score:  106.900
ROOT
ATOM      1  C   UNL     1      33.572  13.109  -2.612  1.00  0.00     0.085 A
ATOM      2  C   UNL     1      34.934  13.267  -2.403  1.00  0.00     0.100 A
ATOM      3  N   UNL     1      35.526  12.024  -2.398  1.00  0.00    -0.344 N
ATOM      4  C   UNL     1      34.578  11.060  -2.607  1.00  0.00     0.156 A
ATOM      5  N   UNL     1      34.788   9.734  -2.714  1.00  0.00    -0.235 NA
ATOM      6  C   UNL     1      33.611   9.077  -2.936  1.00  0.00     0.137 A
ATOM      7  C   UNL     1      32.336   9.662  -3.035  1.00  0.00     0.063 A
ATOM      8  N   UNL     1      32.197  11.001  -2.892  1.00  0.00    -0.247 NA
ATOM      9  C   UNL     1      33.353  11.698  -2.703  1.00  0.00     0.120 A
ATOM     10  H   UNL     1      36.512  11.831  -2.298  1.00  0.00     0.168 HD
ENDROOT
BRANCH   1  11
ATOM     11  C   UNL     1      32.589  14.177  -2.810  1.00  0.00     0.255 C
ATOM     12  N   UNL     1      31.577  13.791  -3.642  1.00  0.00    -0.340 N
ATOM     13  O   UNL     1      32.712  15.307  -2.355  1.00  0.00    -0.269 OA
ATOM     14  H   UNL     1      31.481  12.789  -3.760  1.00  0.00     0.164 HD
BRANCH  12  15
ATOM     15  C   UNL     1      30.780  14.664  -4.496  1.00  0.00     0.179 C
BRANCH  15  16
ATOM     16  C   UNL     1      31.624  15.097  -5.738  1.00  0.00     0.245 C
ATOM     17  O   UNL     1      32.223  14.272  -6.436  1.00  0.00    -0.272 OA
BRANCH  16  18
ATOM     18  N   UNL     1      31.696  16.445  -6.028  1.00  0.00    -0.340 N
ATOM     19  N   UNL     1      34.020  20.495  -5.298  1.00  0.00    -0.198 NA
ATOM     20  C   UNL     1      33.420  19.632  -5.789  1.00  0.00     0.067 C
ATOM     21  C   UNL     1      32.667  18.551  -6.425  1.00  0.00     0.114 C
ATOM     22  C   UNL     1      31.153  18.721  -6.291  1.00  0.00     0.042 C
ATOM     23  C   UNL     1      32.904  17.205  -5.753  1.00  0.00     0.138 C
ATOM     24  C   UNL     1      30.628  17.307  -6.507  1.00  0.00     0.121 C
ENDBRANCH  16  18
ENDBRANCH  15  16
BRANCH  15  25
ATOM     25  C   UNL     1      29.539  13.857  -4.994  1.00  0.00     0.012 C
ATOM     26  C   UNL     1      28.167  14.484  -4.795  1.00  0.00     0.012 C
ATOM     27  C   UNL     1      28.747  14.403  -6.175  1.00  0.00     0.012 C
ATOM     28  G   UNL     1      29.651  12.360  -4.745  1.00  0.00     0.000 C
ENDBRANCH  15  25
ENDBRANCH  12  15
ENDBRANCH   1  11
BRANCH   7  29
ATOM     29  C   UNL     1      31.083   8.807  -3.137  1.00  0.00     0.044 C
ATOM     30  C   UNL     1      31.066   7.566  -3.999  1.00  0.00     0.016 C
ATOM     31  C   UNL     1      30.133   8.702  -4.334  1.00  0.00     0.013 C
BRANCH  31  32
ATOM     32  C   UNL     1      30.259   9.344  -5.684  1.00  0.00     0.085 C
BRANCH  32  33
ATOM     33  N   UNL     1      29.002   9.273  -6.460  1.00  0.00    -0.316 NA
ATOM     34  H   UNL     1      28.269   8.969  -5.817  1.00  0.00     0.122 HD
BRANCH  33  35
ATOM     35  C   UNL     1      29.154   8.222  -7.458  1.00  0.00     0.090 C
ATOM     36  G   UNL     1      28.665   6.809  -7.173  1.00  0.00     0.000 C
ENDBRANCH  33  35
ENDBRANCH  32  33
ENDBRANCH  31  32
ENDBRANCH   7  29
TORSDOF 2
ENDMDL
MODEL 7
REMARK VINA RESULT:      -7.8      2.241      5.471
REMARK SMILES N#C[C@@H]1CCN(C(=O)[C@@H]2NC(=O)c3c[nH]c4ncc(nc34)[C@@H]3C[C@@H]3CNCC23CC3)C1
REMARK SMILES IDX 13 1 14 2 15 3 16 4 17 5 18 6 19 7 20 8 21 9 11 11 10 12
REMARK SMILES IDX 12 13 9 15 7 16 8 17 6 18 1 19 2 20 3 21 4 22 31 23 5 24
REMARK SMILES IDX 28 25 29 26 30 27 22 29 23 30 24 31 25 32 26 33 27 35
REMARK H PARENT 15 10 10 14 26 34
REMARK Flexibility Score:  106.900
ROOT
ATOM      1  C   UNL     1      33.130  14.466  -2.768  1.00  0.00     0.085 A
ATOM      2  C   UNL     1      34.412  14.971  -2.605  1.00  0.00     0.100 A
ATOM      3  N   UNL     1      35.292  13.917  -2.509  1.00  0.00    -0.344 N
ATOM      4  C   UNL     1      34.611  12.736  -2.614  1.00  0.00     0.156 A
ATOM      5  N   UNL     1      35.141  11.497  -2.614  1.00  0.00    -0.235 NA
ATOM      6  C   UNL     1      34.162  10.555  -2.751  1.00  0.00     0.137 A
ATOM      7  C   UNL     1      32.782  10.798  -2.868  1.00  0.00     0.063 A
ATOM      8  N   UNL     1      32.318  12.068  -2.836  1.00  0.00    -0.247 NA
ATOM      9  C   UNL     1      33.266  13.042  -2.734  1.00  0.00     0.120 A
ATOM     10  H   UNL     1      36.296  13.982  -2.417  1.00  0.00     0.168 HD
ENDROOT
BRANCH   1  11
ATOM     11  C   UNL     1      31.914  15.239  -3.031  1.00  0.00     0.255 C
ATOM     12  N   UNL     1      31.571  15.213  -4.353  1.00  0.00    -0.340 N
ATOM     13  O   UNL     1      31.331  15.900  -2.181  1.00  0.00    -0.269 OA
ATOM     14  H   UNL     1      31.996  14.466  -4.890  1.00  0.00     0.164 HD
BRANCH  12  15
ATOM     15  C   UNL     1      30.833  16.244  -5.074  1.00  0.00     0.179 C
BRANCH  15  16
ATOM     16  C   UNL     1      31.772  16.929  -6.119  1.00  0.00     0.245 C
ATOM     17  O   UNL     1      32.425  16.271  -6.934  1.00  0.00    -0.272 OA
BRANCH  16  18
ATOM     18  N   UNL     1      31.866  18.307  -6.094  1.00  0.00    -0.340 N
ATOM     19  N   UNL     1      34.450  22.039  -4.782  1.00  0.00    -0.198 NA
ATOM     20  C   UNL     1      33.750  21.325  -5.369  1.00  0.00     0.067 C
ATOM     21  C   UNL     1      32.868  20.435  -6.124  1.00  0.00     0.114 C
ATOM     22  C   UNL     1      31.396  20.587  -5.738  1.00  0.00     0.042 C
ATOM     23  C   UNL     1      33.133  18.965  -5.827  1.00  0.00     0.138 C
ATOM     24  C   UNL     1      30.782  19.271  -6.199  1.00  0.00     0.121 C
ENDBRANCH  16  18
ENDBRANCH  15  16
BRANCH  15  25
ATOM     25  C   UNL     1      29.656  15.557  -5.837  1.00  0.00     0.012 C
ATOM     26  C   UNL     1      28.262  16.133  -5.644  1.00  0.00     0.012 C
ATOM     27  C   UNL     1      28.966  16.332  -6.951  1.00  0.00     0.012 C
ATOM     28  G   UNL     1      29.771  14.041  -5.885  1.00  0.00     0.000 C
ENDBRANCH  15  25
ENDBRANCH  12  15
ENDBRANCH   1  11
BRANCH   7  29
ATOM     29  C   UNL     1      31.779   9.655  -2.868  1.00  0.00     0.044 C
ATOM     30  C   UNL     1      31.926   8.501  -3.831  1.00  0.00     0.016 C
ATOM     31  C   UNL     1      30.700   9.375  -3.919  1.00  0.00     0.013 C
BRANCH  31  32
ATOM     32  C   UNL     1      30.442  10.100  -5.207  1.00  0.00     0.085 C
BRANCH  32  33
ATOM     33  N   UNL     1      29.452   9.402  -6.055  1.00  0.00    -0.316 NA
ATOM     34  H   UNL     1      29.468   9.856  -6.970  1.00  0.00     0.122 HD
BRANCH  33  35
ATOM     35  C   UNL     1      28.132   9.641  -5.487  1.00  0.00     0.090 C
ATOM     36  G   UNL     1      27.608  11.059  -5.315  1.00  0.00     0.000 C
ENDBRANCH  33  35
ENDBRANCH  32  33
ENDBRANCH  31  32
ENDBRANCH   7  29
TORSDOF 2
ENDMDL
MODEL 8
REMARK VINA RESULT:      -7.7      3.139      8.833
REMARK SMILES N#C[C@@H]1CCN(C(=O)[C@@H]2NC(=O)c3c[nH]c4ncc(nc34)[C@@H]3C[C@@H]3CNCC23CC3)C1
REMARK SMILES IDX 13 1 14 2 15 3 16 4 17 5 18 6 19 7 20 8 21 9 11 11 10 12
REMARK SMILES IDX 12 13 9 15 7 16 8 17 6 18 1 19 2 20 3 21 4 22 31 23 5 24
REMARK SMILES IDX 28 25 29 26 30 27 22 29 23 30 24 31 25 32 26 33 27 35
REMARK H PARENT 15 10 10 14 26 34
REMARK Flexibility Score:  106.900
ROOT
ATOM      1  C   UNL     1      32.275  18.294  -6.267  1.00  0.00     0.085 A
ATOM      2  C   UNL     1      33.448  19.000  -6.038  1.00  0.00     0.100 A
ATOM      3  N   UNL     1      33.141  20.336  -5.917  1.00  0.00    -0.344 N
ATOM      4  C   UNL     1      31.792  20.514  -6.053  1.00  0.00     0.156 A
ATOM      5  N   UNL     1      31.118  21.676  -5.947  1.00  0.00    -0.235 NA
ATOM      6  C   UNL     1      29.779  21.473  -6.128  1.00  0.00     0.137 A
ATOM      7  C   UNL     1      29.152  20.246  -6.402  1.00  0.00     0.063 A
ATOM      8  N   UNL     1      29.896  19.121  -6.520  1.00  0.00    -0.247 NA
ATOM      9  C   UNL     1      31.234  19.274  -6.312  1.00  0.00     0.120 A
ATOM     10  H   UNL     1      33.790  21.083  -5.716  1.00  0.00     0.168 HD
ENDROOT
BRANCH   1  11
ATOM     11  C   UNL     1      32.132  16.838  -6.334  1.00  0.00     0.255 C
ATOM     12  N   UNL     1      30.884  16.431  -5.957  1.00  0.00    -0.340 N
ATOM     13  O   UNL     1      33.050  16.076  -6.609  1.00  0.00    -0.269 OA
ATOM     14  H   UNL     1      30.175  17.156  -5.974  1.00  0.00     0.164 HD
BRANCH  12  15
ATOM     15  C   UNL     1      30.537  15.144  -5.365  1.00  0.00     0.179 C
BRANCH  15  16
ATOM     16  C   UNL     1      31.098  15.066  -3.909  1.00  0.00     0.245 C
ATOM     17  O   UNL     1      30.717  15.840  -3.025  1.00  0.00    -0.272 OA
BRANCH  16  18
ATOM     18  N   UNL     1      32.054  14.108  -3.638  1.00  0.00    -0.340 N
ATOM     19  N   UNL     1      32.888   9.545  -2.731  1.00  0.00    -0.198 NA
ATOM     20  C   UNL     1      32.977  10.634  -3.122  1.00  0.00     0.067 C
ATOM     21  C   UNL     1      33.102  12.001  -3.625  1.00  0.00     0.114 C
ATOM     22  C   UNL     1      33.840  12.927  -2.656  1.00  0.00     0.042 C
ATOM     23  C   UNL     1      31.753  12.692  -3.773  1.00  0.00     0.138 C
ATOM     24  C   UNL     1      33.387  14.314  -3.094  1.00  0.00     0.121 C
ENDBRANCH  16  18
ENDBRANCH  15  16
BRANCH  15  25
ATOM     25  C   UNL     1      28.980  15.039  -5.306  1.00  0.00     0.012 C
ATOM     26  C   UNL     1      28.298  14.122  -6.310  1.00  0.00     0.012 C
ATOM     27  C   UNL     1      28.359  13.719  -4.868  1.00  0.00     0.012 C
ATOM     28  G   UNL     1      28.295  16.367  -5.014  1.00  0.00     0.000 C
ENDBRANCH  15  25
ENDBRANCH  12  15
ENDBRANCH   1  11
BRANCH   7  29
ATOM     29  C   UNL     1      27.668  20.175  -6.730  1.00  0.00     0.044 C
ATOM     30  C   UNL     1      27.145  19.152  -7.710  1.00  0.00     0.016 C
ATOM     31  C   UNL     1      26.989  20.618  -8.029  1.00  0.00     0.013 C
BRANCH  31  32
ATOM     32  C   UNL     1      27.625  21.138  -9.284  1.00  0.00     0.085 C
BRANCH  32  33
ATOM     33  N   UNL     1      27.644  20.127 -10.364  1.00  0.00    -0.316 NA
ATOM     34  H   UNL     1      28.339  19.424 -10.105  1.00  0.00     0.122 HD
BRANCH  33  35
ATOM     35  C   UNL     1      28.131  20.778 -11.574  1.00  0.00     0.090 C
ATOM     36  G   UNL     1      28.894  19.985 -12.625  1.00  0.00     0.000 C
ENDBRANCH  33  35
ENDBRANCH  32  33
ENDBRANCH  31  32
ENDBRANCH   7  29
TORSDOF 2
ENDMDL
MODEL 9
REMARK VINA RESULT:      -7.7      2.087      7.280
REMARK SMILES N#C[C@@H]1CCN(C(=O)[C@@H]2NC(=O)c3c[nH]c4ncc(nc34)[C@@H]3C[C@@H]3CNCC23CC3)C1
REMARK SMILES IDX 13 1 14 2 15 3 16 4 17 5 18 6 19 7 20 8 21 9 11 11 10 12
REMARK SMILES IDX 12 13 9 15 7 16 8 17 6 18 1 19 2 20 3 21 4 22 31 23 5 24
REMARK SMILES IDX 28 25 29 26 30 27 22 29 23 30 24 31 25 32 26 33 27 35
REMARK H PARENT 15 10 10 14 26 34
REMARK Flexibility Score:  106.900
ROOT
ATOM      1  C   UNL     1      27.808  13.851  -6.132  1.00  0.00     0.085 A
ATOM      2  C   UNL     1      27.192  13.165  -7.170  1.00  0.00     0.100 A
ATOM      3  N   UNL     1      26.808  14.074  -8.130  1.00  0.00    -0.344 N
ATOM      4  C   UNL     1      27.168  15.335  -7.744  1.00  0.00     0.156 A
ATOM      5  N   UNL     1      27.001  16.472  -8.447  1.00  0.00    -0.235 NA
ATOM      6  C   UNL     1      27.494  17.542  -7.756  1.00  0.00     0.137 A
ATOM      7  C   UNL     1      28.089  17.509  -6.482  1.00  0.00     0.063 A
ATOM      8  N   UNL     1      28.202  16.333  -5.823  1.00  0.00    -0.247 NA
ATOM      9  C   UNL     1      27.753  15.234  -6.492  1.00  0.00     0.120 A
ATOM     10  H   UNL     1      26.364  13.860  -9.012  1.00  0.00     0.168 HD
ENDROOT
BRANCH   1  11
ATOM     11  C   UNL     1      28.473  13.259  -4.969  1.00  0.00     0.255 C
ATOM     12  N   UNL     1      29.470  14.061  -4.490  1.00  0.00    -0.340 N
ATOM     13  O   UNL     1      28.222  12.141  -4.537  1.00  0.00    -0.269 OA
ATOM     14  H   UNL     1      29.421  15.028  -4.789  1.00  0.00     0.164 HD
BRANCH  12  15
ATOM     15  C   UNL     1      30.663  13.622  -3.775  1.00  0.00     0.179 C
BRANCH  15  16
ATOM     16  C   UNL     1      31.421  12.552  -4.625  1.00  0.00     0.245 C
ATOM     17  O   UNL     1      31.789  12.783  -5.782  1.00  0.00    -0.272 OA
BRANCH  16  18
ATOM     18  N   UNL     1      31.658  11.320  -4.047  1.00  0.00    -0.340 N
ATOM     19  N   UNL     1      34.764   8.596  -1.753  1.00  0.00    -0.198 NA
ATOM     20  C   UNL     1      33.784   9.105  -2.110  1.00  0.00     0.067 C
ATOM     21  C   UNL     1      32.541   9.738  -2.546  1.00  0.00     0.114 C
ATOM     22  C   UNL     1      31.870   9.000  -3.706  1.00  0.00     0.042 C
ATOM     23  C   UNL     1      32.770  11.125  -3.131  1.00  0.00     0.138 C
ATOM     24  C   UNL     1      30.973  10.067  -4.320  1.00  0.00     0.121 C
ENDBRANCH  16  18
ENDBRANCH  15  16
BRANCH  15  25
ATOM     25  C   UNL     1      31.598  14.858  -3.582  1.00  0.00     0.012 C
ATOM     26  C   UNL     1      31.689  15.460  -2.188  1.00  0.00     0.012 C
ATOM     27  C   UNL     1      32.853  14.692  -2.736  1.00  0.00     0.012 C
ATOM     28  G   UNL     1      31.557  15.834  -4.749  1.00  0.00     0.000 C
ENDBRANCH  15  25
ENDBRANCH  12  15
ENDBRANCH   1  11
BRANCH   7  29
ATOM     29  C   UNL     1      28.465  18.791  -5.755  1.00  0.00     0.044 C
ATOM     30  C   UNL     1      28.779  20.050  -6.528  1.00  0.00     0.016 C
ATOM     31  C   UNL     1      29.854  19.430  -5.671  1.00  0.00     0.013 C
BRANCH  31  32
ATOM     32  C   UNL     1      31.124  18.993  -6.341  1.00  0.00     0.085 C
BRANCH  32  33
ATOM     33  N   UNL     1      32.328  19.473  -5.630  1.00  0.00    -0.316 NA
ATOM     34  H   UNL     1      32.189  20.467  -5.441  1.00  0.00     0.122 HD
BRANCH  33  35
ATOM     35  C   UNL     1      33.457  19.370  -6.545  1.00  0.00     0.090 C
ATOM     36  G   UNL     1      34.246  18.073  -6.656  1.00  0.00     0.000 C
ENDBRANCH  33  35
ENDBRANCH  32  33
ENDBRANCH  31  32
ENDBRANCH   7  29
TORSDOF 2
ENDMDL
