MODEL 1
REMARK VINA RESULT:      -8.3      0.000      0.000
REMARK SMILES CC(C)(C)[C@H]1NC(=O)c2c[nH]c3ncc(nc23)[C@]2(CCCNCC[C@@]3(C#N)CN(C3)C1=O)CC2
REMARK SMILES IDX 9 1 10 2 11 3 12 4 13 5 14 6 15 7 16 8 17 9 7 11 6 12 8 13
REMARK SMILES IDX 5 15 2 16 1 17 3 18 4 19 31 20 32 21 29 22 28 23 30 24 25 25
REMARK SMILES IDX 26 26 27 27 24 28 18 30 34 31 33 32 19 33 20 34 21 35 22 36
REMARK SMILES IDX 23 38
REMARK H PARENT 11 10 6 14 22 37
REMARK Flexibility Score:  115.900
ROOT
ATOM      1  C   UNL     1      34.120  12.962  -2.692  1.00  0.00     0.085 A
ATOM      2  C   UNL     1      35.319  12.843  -1.993  1.00  0.00     0.100 A
ATOM      3  N   UNL     1      35.565  11.510  -1.777  1.00  0.00    -0.344 N
ATOM      4  C   UNL     1      34.538  10.769  -2.284  1.00  0.00     0.156 A
ATOM      5  N   UNL     1      34.416   9.433  -2.185  1.00  0.00    -0.235 NA
ATOM      6  C   UNL     1      33.258   9.017  -2.763  1.00  0.00     0.138 A
ATOM      7  C   UNL     1      32.315   9.836  -3.404  1.00  0.00     0.066 A
ATOM      8  N   UNL     1      32.507  11.179  -3.481  1.00  0.00    -0.246 NA
ATOM      9  C   UNL     1      33.640  11.638  -2.894  1.00  0.00     0.120 A
ATOM     10  H   UNL     1      36.361  11.110  -1.298  1.00  0.00     0.168 HD
ENDROOT
BRANCH   1  11
ATOM     11  C   UNL     1      33.482  14.199  -3.112  1.00  0.00     0.255 C
ATOM     12  N   UNL     1      32.301  14.006  -3.796  1.00  0.00    -0.340 N
ATOM     13  O   UNL     1      33.960  15.309  -2.918  1.00  0.00    -0.269 OA
ATOM     14  H   UNL     1      32.006  13.063  -3.998  1.00  0.00     0.164 HD
BRANCH  12  15
ATOM     15  C   UNL     1      31.478  15.127  -4.247  1.00  0.00     0.177 C
BRANCH  15  16
ATOM     16  C   UNL     1      29.988  14.681  -4.466  1.00  0.00    -0.009 C
ATOM     17  C   UNL     1      29.844  13.847  -5.758  1.00  0.00     0.013 C
ATOM     18  C   UNL     1      29.451  13.845  -3.290  1.00  0.00     0.013 C
ATOM     19  C   UNL     1      29.087  15.928  -4.632  1.00  0.00     0.013 C
ENDBRANCH  15  16
BRANCH  15  20
ATOM     20  C   UNL     1      32.053  15.899  -5.471  1.00  0.00     0.245 C
ATOM     21  O   UNL     1      32.630  15.285  -6.377  1.00  0.00    -0.272 OA
BRANCH  20  22
ATOM     22  N   UNL     1      32.069  17.265  -5.477  1.00  0.00    -0.338 N
ATOM     23  C   UNL     1      32.384  18.135  -6.598  1.00  0.00     0.143 C
ATOM     24  C   UNL     1      31.812  18.327  -4.536  1.00  0.00     0.143 C
ATOM     25  C   UNL     1      32.077  19.340  -5.680  1.00  0.00     0.094 C
ATOM     26  C   UNL     1      33.233  20.187  -5.447  1.00  0.00     0.073 C
ATOM     27  N   UNL     1      34.153  20.861  -5.234  1.00  0.00    -0.198 NA
BRANCH  25  28
ATOM     28  C   UNL     1      30.851  20.129  -6.174  1.00  0.00     0.041 C
ATOM     29  G   UNL     1      30.877  21.600  -5.733  1.00  0.00     0.000 C
ENDBRANCH  25  28
ENDBRANCH  20  22
ENDBRANCH  15  20
ENDBRANCH  12  15
ENDBRANCH   1  11
BRANCH   7  30
ATOM     30  C   UNL     1      31.000   9.287  -3.967  1.00  0.00     0.014 C
ATOM     31  C   UNL     1      30.348   9.896  -5.201  1.00  0.00     0.014 C
ATOM     32  C   UNL     1      29.788  10.203  -3.847  1.00  0.00     0.014 C
BRANCH  30  33
ATOM     33  C   UNL     1      30.735   7.812  -3.675  1.00  0.00     0.015 C
BRANCH  33  34
ATOM     34  C   UNL     1      30.811   6.916  -4.917  1.00  0.00     0.016 C
BRANCH  34  35
ATOM     35  C   UNL     1      29.484   6.183  -5.138  1.00  0.00     0.081 C
BRANCH  35  36
ATOM     36  N   UNL     1      28.595   6.852  -6.091  1.00  0.00    -0.317 NA
ATOM     37  H   UNL     1      28.583   6.320  -6.963  1.00  0.00     0.122 HD
BRANCH  36  38
ATOM     38  C   UNL     1      27.220   7.053  -5.630  1.00  0.00     0.082 C
ATOM     39  G   UNL     1      26.837   8.535  -5.498  1.00  0.00     0.000 C
ENDBRANCH  36  38
ENDBRANCH  35  36
ENDBRANCH  34  35
ENDBRANCH  33  34
ENDBRANCH  30  33
ENDBRANCH   7  30
TORSDOF 1
ENDMDL
MODEL 2
REMARK VINA RESULT:      -8.0      0.710      1.138
REMARK SMILES CC(C)(C)[C@H]1NC(=O)c2c[nH]c3ncc(nc23)[C@]2(CCCNCC[C@@]3(C#N)CN(C3)C1=O)CC2
REMARK SMILES IDX 9 1 10 2 11 3 12 4 13 5 14 6 15 7 16 8 17 9 7 11 6 12 8 13
REMARK SMILES IDX 5 15 2 16 1 17 3 18 4 19 31 20 32 21 29 22 28 23 30 24 25 25
REMARK SMILES IDX 26 26 27 27 24 28 18 30 34 31 33 32 19 33 20 34 21 35 22 36
REMARK SMILES IDX 23 38
REMARK H PARENT 11 10 6 14 22 37
REMARK Flexibility Score:  115.900
ROOT
ATOM      1  C   UNL     1      34.036  12.832  -2.712  1.00  0.00     0.085 A
ATOM      2  C   UNL     1      35.219  12.700  -1.987  1.00  0.00     0.100 A
ATOM      3  N   UNL     1      35.444  11.364  -1.765  1.00  0.00    -0.344 N
ATOM      4  C   UNL     1      34.420  10.635  -2.294  1.00  0.00     0.156 A
ATOM      5  N   UNL     1      34.280   9.301  -2.197  1.00  0.00    -0.235 NA
ATOM      6  C   UNL     1      33.129   8.898  -2.799  1.00  0.00     0.138 A
ATOM      7  C   UNL     1      32.210   9.727  -3.461  1.00  0.00     0.066 A
ATOM      8  N   UNL     1      32.419  11.068  -3.534  1.00  0.00    -0.246 NA
ATOM      9  C   UNL     1      33.545  11.513  -2.923  1.00  0.00     0.120 A
ATOM     10  H   UNL     1      36.225  10.955  -1.269  1.00  0.00     0.168 HD
ENDROOT
BRANCH   1  11
ATOM     11  C   UNL     1      33.422  14.076  -3.145  1.00  0.00     0.255 C
ATOM     12  N   UNL     1      32.222  13.900  -3.801  1.00  0.00    -0.340 N
ATOM     13  O   UNL     1      33.932  15.178  -2.986  1.00  0.00    -0.269 OA
ATOM     14  H   UNL     1      31.899  12.960  -3.976  1.00  0.00     0.164 HD
BRANCH  12  15
ATOM     15  C   UNL     1      31.419  15.033  -4.259  1.00  0.00     0.177 C
BRANCH  15  16
ATOM     16  C   UNL     1      29.932  14.600  -4.522  1.00  0.00    -0.009 C
ATOM     17  C   UNL     1      29.389  13.745  -3.357  1.00  0.00     0.013 C
ATOM     18  C   UNL     1      28.998  15.810  -4.709  1.00  0.00     0.013 C
ATOM     19  C   UNL     1      29.859  13.724  -5.796  1.00  0.00     0.013 C
ENDBRANCH  15  16
BRANCH  15  20
ATOM     20  C   UNL     1      32.031  15.814  -5.459  1.00  0.00     0.245 C
ATOM     21  O   UNL     1      32.652  15.210  -6.342  1.00  0.00    -0.272 OA
BRANCH  20  22
ATOM     22  N   UNL     1      32.029  17.181  -5.463  1.00  0.00    -0.338 N
ATOM     23  C   UNL     1      32.184  18.056  -6.612  1.00  0.00     0.143 C
ATOM     24  C   UNL     1      31.881  18.237  -4.493  1.00  0.00     0.143 C
ATOM     25  C   UNL     1      31.983  19.256  -5.658  1.00  0.00     0.094 C
ATOM     26  C   UNL     1      33.148  20.118  -5.575  1.00  0.00     0.073 C
ATOM     27  N   UNL     1      34.079  20.804  -5.480  1.00  0.00    -0.198 NA
BRANCH  25  28
ATOM     28  C   UNL     1      30.692  20.029  -5.987  1.00  0.00     0.041 C
ATOM     29  G   UNL     1      30.770  21.508  -5.581  1.00  0.00     0.000 C
ENDBRANCH  25  28
ENDBRANCH  20  22
ENDBRANCH  15  20
ENDBRANCH  12  15
ENDBRANCH   1  11
BRANCH   7  30
ATOM     30  C   UNL     1      30.901   9.193  -4.051  1.00  0.00     0.014 C
ATOM     31  C   UNL     1      30.247   9.851  -5.258  1.00  0.00     0.014 C
ATOM     32  C   UNL     1      29.681  10.094  -3.893  1.00  0.00     0.014 C
BRANCH  30  33
ATOM     33  C   UNL     1      30.647   7.705  -3.826  1.00  0.00     0.015 C
BRANCH  33  34
ATOM     34  C   UNL     1      30.688   6.872  -5.113  1.00  0.00     0.016 C
BRANCH  34  35
ATOM     35  C   UNL     1      29.271   6.541  -5.590  1.00  0.00     0.081 C
BRANCH  35  36
ATOM     36  N   UNL     1      28.613   5.500  -4.797  1.00  0.00    -0.317 NA
ATOM     37  H   UNL     1      28.900   5.593  -3.821  1.00  0.00     0.122 HD
BRANCH  36  38
ATOM     38  C   UNL     1      27.150   5.488  -4.869  1.00  0.00     0.082 C
ATOM     39  G   UNL     1      26.520   4.271  -4.174  1.00  0.00     0.000 C
ENDBRANCH  36  38
ENDBRANCH  35  36
ENDBRANCH  34  35
ENDBRANCH  33  34
ENDBRANCH  30  33
ENDBRANCH   7  30
TORSDOF 1
ENDMDL
MODEL 3
REMARK VINA RESULT:      -8.0      0.924      1.455
REMARK SMILES CC(C)(C)[C@H]1NC(=O)c2c[nH]c3ncc(nc23)[C@]2(CCCNCC[C@@]3(C#N)CN(C3)C1=O)CC2
REMARK SMILES IDX 9 1 10 2 11 3 12 4 13 5 14 6 15 7 16 8 17 9 7 11 6 12 8 13
REMARK SMILES IDX 5 15 2 16 1 17 3 18 4 19 31 20 32 21 29 22 28 23 30 24 25 25
REMARK SMILES IDX 26 26 27 27 24 28 18 30 34 31 33 32 19 33 20 34 21 35 22 36
REMARK SMILES IDX 23 38
REMARK H PARENT 11 10 6 14 22 37
REMARK Flexibility Score:  115.900
ROOT
ATOM      1  C   UNL     1      34.062  13.137  -2.763  1.00  0.00     0.085 A
ATOM      2  C   UNL     1      35.256  13.024  -2.054  1.00  0.00     0.100 A
ATOM      3  N   UNL     1      35.517  11.691  -1.854  1.00  0.00    -0.344 N
ATOM      4  C   UNL     1      34.505  10.945  -2.382  1.00  0.00     0.156 A
ATOM      5  N   UNL     1      34.399   9.606  -2.303  1.00  0.00    -0.235 NA
ATOM      6  C   UNL     1      33.252   9.184  -2.899  1.00  0.00     0.138 A
ATOM      7  C   UNL     1      32.305   9.999  -3.537  1.00  0.00     0.066 A
ATOM      8  N   UNL     1      32.480  11.346  -3.593  1.00  0.00    -0.246 NA
ATOM      9  C   UNL     1      33.602  11.810  -2.988  1.00  0.00     0.120 A
ATOM     10  H   UNL     1      36.313  11.295  -1.373  1.00  0.00     0.168 HD
ENDROOT
BRANCH   1  11
ATOM     11  C   UNL     1      33.412  14.372  -3.171  1.00  0.00     0.255 C
ATOM     12  N   UNL     1      32.241  14.175  -3.869  1.00  0.00    -0.340 N
ATOM     13  O   UNL     1      33.874  15.486  -2.956  1.00  0.00    -0.269 OA
ATOM     14  H   UNL     1      31.960  13.230  -4.088  1.00  0.00     0.164 HD
BRANCH  12  15
ATOM     15  C   UNL     1      31.408  15.291  -4.312  1.00  0.00     0.177 C
BRANCH  15  16
ATOM     16  C   UNL     1      29.917  14.838  -4.515  1.00  0.00    -0.009 C
ATOM     17  C   UNL     1      29.486  13.845  -3.414  1.00  0.00     0.013 C
ATOM     18  C   UNL     1      28.940  16.028  -4.503  1.00  0.00     0.013 C
ATOM     19  C   UNL     1      29.774  14.100  -5.868  1.00  0.00     0.013 C
ENDBRANCH  15  16
BRANCH  15  20
ATOM     20  C   UNL     1      31.966  16.065  -5.543  1.00  0.00     0.245 C
ATOM     21  O   UNL     1      32.609  15.465  -6.413  1.00  0.00    -0.272 OA
BRANCH  20  22
ATOM     22  N   UNL     1      31.891  17.428  -5.591  1.00  0.00    -0.338 N
ATOM     23  C   UNL     1      31.738  18.339  -4.469  1.00  0.00     0.143 C
ATOM     24  C   UNL     1      31.934  18.452  -6.606  1.00  0.00     0.143 C
ATOM     25  C   UNL     1      31.827  19.509  -5.476  1.00  0.00     0.094 C
ATOM     26  C   UNL     1      30.612  20.301  -5.536  1.00  0.00     0.073 C
ATOM     27  N   UNL     1      29.640  20.930  -5.612  1.00  0.00    -0.198 NA
BRANCH  25  28
ATOM     28  C   UNL     1      33.085  20.364  -5.237  1.00  0.00     0.041 C
ATOM     29  G   UNL     1      32.962  21.774  -5.834  1.00  0.00     0.000 C
ENDBRANCH  25  28
ENDBRANCH  20  22
ENDBRANCH  15  20
ENDBRANCH  12  15
ENDBRANCH   1  11
BRANCH   7  30
ATOM     30  C   UNL     1      31.003   9.442  -4.121  1.00  0.00     0.014 C
ATOM     31  C   UNL     1      30.217  10.202  -5.180  1.00  0.00     0.014 C
ATOM     32  C   UNL     1      29.732  10.203  -3.764  1.00  0.00     0.014 C
BRANCH  30  33
ATOM     33  C   UNL     1      30.881   7.920  -4.098  1.00  0.00     0.015 C
BRANCH  33  34
ATOM     34  C   UNL     1      29.993   7.357  -5.214  1.00  0.00     0.016 C
BRANCH  34  35
ATOM     35  C   UNL     1      29.634   5.895  -4.934  1.00  0.00     0.081 C
BRANCH  35  36
ATOM     36  N   UNL     1      28.259   5.546  -5.303  1.00  0.00    -0.317 NA
ATOM     37  H   UNL     1      27.818   5.061  -4.521  1.00  0.00     0.122 HD
BRANCH  36  38
ATOM     38  C   UNL     1      27.415   6.672  -5.709  1.00  0.00     0.082 C
ATOM     39  G   UNL     1      26.827   6.509  -7.119  1.00  0.00     0.000 C
ENDBRANCH  36  38
ENDBRANCH  35  36
ENDBRANCH  34  35
ENDBRANCH  33  34
ENDBRANCH  30  33
ENDBRANCH   7  30
TORSDOF 1
ENDMDL
MODEL 4
REMARK VINA RESULT:      -8.0      1.191      1.580
REMARK SMILES CC(C)(C)[C@H]1NC(=O)c2c[nH]c3ncc(nc23)[C@]2(CCCNCC[C@@]3(C#N)CN(C3)C1=O)CC2
REMARK SMILES IDX 9 1 10 2 11 3 12 4 13 5 14 6 15 7 16 8 17 9 7 11 6 12 8 13
REMARK SMILES IDX 5 15 2 16 1 17 3 18 4 19 31 20 32 21 29 22 28 23 30 24 25 25
REMARK SMILES IDX 26 26 27 27 24 28 18 30 34 31 33 32 19 33 20 34 21 35 22 36
REMARK SMILES IDX 23 38
REMARK H PARENT 11 10 6 14 22 37
REMARK Flexibility Score:  115.900
ROOT
ATOM      1  C   UNL     1      34.595  12.389  -2.305  1.00  0.00     0.085 A
ATOM      2  C   UNL     1      35.688  12.121  -1.483  1.00  0.00     0.100 A
ATOM      3  N   UNL     1      35.743  10.767  -1.263  1.00  0.00    -0.344 N
ATOM      4  C   UNL     1      34.695  10.160  -1.890  1.00  0.00     0.156 A
ATOM      5  N   UNL     1      34.401   8.849  -1.826  1.00  0.00    -0.235 NA
ATOM      6  C   UNL     1      33.270   8.581  -2.532  1.00  0.00     0.138 A
ATOM      7  C   UNL     1      32.510   9.512  -3.257  1.00  0.00     0.066 A
ATOM      8  N   UNL     1      32.871  10.821  -3.291  1.00  0.00    -0.246 NA
ATOM      9  C   UNL     1      33.982  11.135  -2.578  1.00  0.00     0.120 A
ATOM     10  H   UNL     1      36.428  10.271  -0.708  1.00  0.00     0.168 HD
ENDROOT
BRANCH   1  11
ATOM     11  C   UNL     1      34.163  13.696  -2.770  1.00  0.00     0.255 C
ATOM     12  N   UNL     1      32.840  13.735  -3.156  1.00  0.00    -0.340 N
ATOM     13  O   UNL     1      34.904  14.667  -2.855  1.00  0.00    -0.269 OA
ATOM     14  H   UNL     1      32.306  12.879  -3.143  1.00  0.00     0.164 HD
BRANCH  12  15
ATOM     15  C   UNL     1      32.199  14.974  -3.595  1.00  0.00     0.177 C
BRANCH  15  16
ATOM     16  C   UNL     1      30.742  15.089  -3.021  1.00  0.00    -0.009 C
ATOM     17  C   UNL     1      29.915  13.828  -3.350  1.00  0.00     0.013 C
ATOM     18  C   UNL     1      30.731  15.289  -1.494  1.00  0.00     0.013 C
ATOM     19  C   UNL     1      30.015  16.288  -3.676  1.00  0.00     0.013 C
ENDBRANCH  15  16
BRANCH  15  20
ATOM     20  C   UNL     1      32.253  15.218  -5.132  1.00  0.00     0.245 C
ATOM     21  O   UNL     1      32.287  14.259  -5.912  1.00  0.00    -0.272 OA
BRANCH  20  22
ATOM     22  N   UNL     1      32.426  16.482  -5.622  1.00  0.00    -0.338 N
ATOM     23  C   UNL     1      32.960  17.633  -4.913  1.00  0.00     0.143 C
ATOM     24  C   UNL     1      32.211  17.167  -6.873  1.00  0.00     0.143 C
ATOM     25  C   UNL     1      32.815  18.439  -6.224  1.00  0.00     0.094 C
ATOM     26  C   UNL     1      31.874  19.539  -6.116  1.00  0.00     0.073 C
ATOM     27  N   UNL     1      31.108  20.408  -6.052  1.00  0.00    -0.198 NA
BRANCH  25  28
ATOM     28  C   UNL     1      34.187  18.881  -6.769  1.00  0.00     0.041 C
ATOM     29  G   UNL     1      34.381  20.404  -6.716  1.00  0.00     0.000 C
ENDBRANCH  25  28
ENDBRANCH  20  22
ENDBRANCH  15  20
ENDBRANCH  12  15
ENDBRANCH   1  11
BRANCH   7  30
ATOM     30  C   UNL     1      31.206   9.131  -3.967  1.00  0.00     0.014 C
ATOM     31  C   UNL     1      30.627   9.991  -5.081  1.00  0.00     0.014 C
ATOM     32  C   UNL     1      30.016  10.049  -3.716  1.00  0.00     0.014 C
BRANCH  30  33
ATOM     33  C   UNL     1      30.887   7.638  -3.981  1.00  0.00     0.015 C
BRANCH  33  34
ATOM     34  C   UNL     1      30.373   7.131  -5.333  1.00  0.00     0.016 C
BRANCH  34  35
ATOM     35  C   UNL     1      29.051   6.377  -5.162  1.00  0.00     0.081 C
BRANCH  35  36
ATOM     36  N   UNL     1      27.880   7.134  -5.610  1.00  0.00    -0.317 NA
ATOM     37  H   UNL     1      28.136   7.686  -6.431  1.00  0.00     0.122 HD
BRANCH  36  38
ATOM     38  C   UNL     1      26.695   6.331  -5.921  1.00  0.00     0.082 C
ATOM     39  G   UNL     1      25.503   6.632  -5.000  1.00  0.00     0.000 C
ENDBRANCH  36  38
ENDBRANCH  35  36
ENDBRANCH  34  35
ENDBRANCH  33  34
ENDBRANCH  30  33
ENDBRANCH   7  30
TORSDOF 1
ENDMDL
MODEL 5
REMARK VINA RESULT:      -7.9      1.122      1.965
REMARK SMILES CC(C)(C)[C@H]1NC(=O)c2c[nH]c3ncc(nc23)[C@]2(CCCNCC[C@@]3(C#N)CN(C3)C1=O)CC2
REMARK SMILES IDX 9 1 10 2 11 3 12 4 13 5 14 6 15 7 16 8 17 9 7 11 6 12 8 13
REMARK SMILES IDX 5 15 2 16 1 17 3 18 4 19 31 20 32 21 29 22 28 23 30 24 25 25
REMARK SMILES IDX 26 26 27 27 24 28 18 30 34 31 33 32 19 33 20 34 21 35 22 36
REMARK SMILES IDX 23 38
REMARK H PARENT 11 10 6 14 22 37
REMARK Flexibility Score:  115.900
ROOT
ATOM      1  C   UNL     1      34.248  13.258  -2.638  1.00  0.00     0.085 A
ATOM      2  C   UNL     1      35.442  13.209  -1.922  1.00  0.00     0.100 A
ATOM      3  N   UNL     1      35.744  11.893  -1.672  1.00  0.00    -0.344 N
ATOM      4  C   UNL     1      34.757  11.096  -2.173  1.00  0.00     0.156 A
ATOM      5  N   UNL     1      34.692   9.759  -2.043  1.00  0.00    -0.235 NA
ATOM      6  C   UNL     1      33.561   9.279  -2.625  1.00  0.00     0.138 A
ATOM      7  C   UNL     1      32.591  10.040  -3.296  1.00  0.00     0.066 A
ATOM      8  N   UNL     1      32.724  11.389  -3.403  1.00  0.00    -0.246 NA
ATOM      9  C   UNL     1      33.829  11.910  -2.813  1.00  0.00     0.120 A
ATOM     10  H   UNL     1      36.550  11.540  -1.174  1.00  0.00     0.168 HD
ENDROOT
BRANCH   1  11
ATOM     11  C   UNL     1      33.561  14.456  -3.094  1.00  0.00     0.255 C
ATOM     12  N   UNL     1      32.406  14.195  -3.799  1.00  0.00    -0.340 N
ATOM     13  O   UNL     1      33.982  15.591  -2.911  1.00  0.00    -0.269 OA
ATOM     14  H   UNL     1      32.161  13.235  -3.989  1.00  0.00     0.164 HD
BRANCH  12  15
ATOM     15  C   UNL     1      31.541  15.268  -4.287  1.00  0.00     0.177 C
BRANCH  15  16
ATOM     16  C   UNL     1      30.075  14.751  -4.516  1.00  0.00    -0.009 C
ATOM     17  C   UNL     1      29.085  15.929  -4.636  1.00  0.00     0.013 C
ATOM     18  C   UNL     1      29.954  13.887  -5.785  1.00  0.00     0.013 C
ATOM     19  C   UNL     1      29.623  13.904  -3.302  1.00  0.00     0.013 C
ENDBRANCH  15  16
BRANCH  15  20
ATOM     20  C   UNL     1      32.099  16.035  -5.522  1.00  0.00     0.245 C
ATOM     21  O   UNL     1      32.751  15.433  -6.385  1.00  0.00    -0.272 OA
BRANCH  20  22
ATOM     22  N   UNL     1      32.015  17.398  -5.581  1.00  0.00    -0.338 N
ATOM     23  C   UNL     1      31.825  18.315  -4.470  1.00  0.00     0.143 C
ATOM     24  C   UNL     1      32.077  18.415  -6.602  1.00  0.00     0.143 C
ATOM     25  C   UNL     1      31.930  19.478  -5.482  1.00  0.00     0.094 C
ATOM     26  C   UNL     1      30.711  20.260  -5.580  1.00  0.00     0.073 C
ATOM     27  N   UNL     1      29.737  20.881  -5.687  1.00  0.00    -0.198 NA
BRANCH  25  28
ATOM     28  C   UNL     1      33.175  20.346  -5.216  1.00  0.00     0.041 C
ATOM     29  G   UNL     1      32.860  21.849  -5.224  1.00  0.00     0.000 C
ENDBRANCH  25  28
ENDBRANCH  20  22
ENDBRANCH  15  20
ENDBRANCH  12  15
ENDBRANCH   1  11
BRANCH   7  30
ATOM     30  C   UNL     1      31.308   9.421  -3.861  1.00  0.00     0.014 C
ATOM     31  C   UNL     1      30.525   8.371  -3.086  1.00  0.00     0.014 C
ATOM     32  C   UNL     1      31.388   7.945  -4.233  1.00  0.00     0.014 C
BRANCH  30  33
ATOM     33  C   UNL     1      30.541  10.302  -4.844  1.00  0.00     0.015 C
BRANCH  33  34
ATOM     34  C   UNL     1      29.095  10.581  -4.420  1.00  0.00     0.016 C
BRANCH  34  35
ATOM     35  C   UNL     1      28.114  10.119  -5.503  1.00  0.00     0.081 C
BRANCH  35  36
ATOM     36  N   UNL     1      26.926   9.446  -4.971  1.00  0.00    -0.317 NA
ATOM     37  H   UNL     1      26.145  10.104  -4.968  1.00  0.00     0.122 HD
BRANCH  36  38
ATOM     38  C   UNL     1      26.526   8.228  -5.680  1.00  0.00     0.082 C
ATOM     39  G   UNL     1      25.687   7.274  -4.817  1.00  0.00     0.000 C
ENDBRANCH  36  38
ENDBRANCH  35  36
ENDBRANCH  34  35
ENDBRANCH  33  34
ENDBRANCH  30  33
ENDBRANCH   7  30
TORSDOF 1
ENDMDL
MODEL 6
REMARK VINA RESULT:      -7.8      1.710      3.100
REMARK SMILES CC(C)(C)[C@H]1NC(=O)c2c[nH]c3ncc(nc23)[C@]2(CCCNCC[C@@]3(C#N)CN(C3)C1=O)CC2
REMARK SMILES IDX 9 1 10 2 11 3 12 4 13 5 14 6 15 7 16 8 17 9 7 11 6 12 8 13
REMARK SMILES IDX 5 15 2 16 1 17 3 18 4 19 31 20 32 21 29 22 28 23 30 24 25 25
REMARK SMILES IDX 26 26 27 27 24 28 18 30 34 31 33 32 19 33 20 34 21 35 22 36
REMARK SMILES IDX 23 38
REMARK H PARENT 11 10 6 14 22 37
REMARK Flexibility Score:  115.900
ROOT
ATOM      1  C   UNL     1      33.820  11.725  -2.782  1.00  0.00     0.085 A
ATOM      2  C   UNL     1      34.806  11.099  -2.022  1.00  0.00     0.100 A
ATOM      3  N   UNL     1      34.546   9.751  -2.001  1.00  0.00    -0.344 N
ATOM      4  C   UNL     1      33.399   9.497  -2.694  1.00  0.00     0.156 A
ATOM      5  N   UNL     1      32.812   8.293  -2.816  1.00  0.00    -0.235 NA
ATOM      6  C   UNL     1      31.664   8.396  -3.539  1.00  0.00     0.138 A
ATOM      7  C   UNL     1      31.152   9.570  -4.111  1.00  0.00     0.066 A
ATOM      8  N   UNL     1      31.804  10.753  -3.961  1.00  0.00    -0.246 NA
ATOM      9  C   UNL     1      32.942  10.697  -3.225  1.00  0.00     0.120 A
ATOM     10  H   UNL     1      35.087   9.037  -1.532  1.00  0.00     0.168 HD
ENDROOT
BRANCH   1  11
ATOM     11  C   UNL     1      33.708  13.150  -3.047  1.00  0.00     0.255 C
ATOM     12  N   UNL     1      32.480  13.522  -3.551  1.00  0.00    -0.340 N
ATOM     13  O   UNL     1      34.623  13.946  -2.883  1.00  0.00    -0.269 OA
ATOM     14  H   UNL     1      31.798  12.804  -3.745  1.00  0.00     0.164 HD
BRANCH  12  15
ATOM     15  C   UNL     1      32.148  14.919  -3.824  1.00  0.00     0.177 C
BRANCH  15  16
ATOM     16  C   UNL     1      30.782  15.316  -3.159  1.00  0.00    -0.009 C
ATOM     17  C   UNL     1      30.964  15.607  -1.653  1.00  0.00     0.013 C
ATOM     18  C   UNL     1      30.151  16.556  -3.818  1.00  0.00     0.013 C
ATOM     19  C   UNL     1      29.783  14.139  -3.272  1.00  0.00     0.013 C
ENDBRANCH  15  16
BRANCH  15  20
ATOM     20  C   UNL     1      32.212  15.315  -5.330  1.00  0.00     0.245 C
ATOM     21  O   UNL     1      32.238  14.438  -6.201  1.00  0.00    -0.272 OA
BRANCH  20  22
ATOM     22  N   UNL     1      32.403  16.619  -5.690  1.00  0.00    -0.338 N
ATOM     23  C   UNL     1      33.155  17.630  -4.965  1.00  0.00     0.143 C
ATOM     24  C   UNL     1      32.024  17.476  -6.787  1.00  0.00     0.143 C
ATOM     25  C   UNL     1      32.846  18.611  -6.120  1.00  0.00     0.094 C
ATOM     26  C   UNL     1      32.039  19.744  -5.704  1.00  0.00     0.073 C
ATOM     27  N   UNL     1      31.376  20.643  -5.393  1.00  0.00    -0.198 NA
BRANCH  25  28
ATOM     28  C   UNL     1      34.129  19.033  -6.860  1.00  0.00     0.041 C
ATOM     29  G   UNL     1      34.463  20.519  -6.663  1.00  0.00     0.000 C
ENDBRANCH  25  28
ENDBRANCH  20  22
ENDBRANCH  15  20
ENDBRANCH  12  15
ENDBRANCH   1  11
BRANCH   7  30
ATOM     30  C   UNL     1      29.810   9.604  -4.852  1.00  0.00     0.014 C
ATOM     31  C   UNL     1      28.963   8.351  -5.019  1.00  0.00     0.014 C
ATOM     32  C   UNL     1      29.762   8.858  -6.180  1.00  0.00     0.014 C
BRANCH  30  33
ATOM     33  C   UNL     1      29.094  10.952  -4.833  1.00  0.00     0.015 C
BRANCH  33  34
ATOM     34  C   UNL     1      27.611  10.865  -5.214  1.00  0.00     0.016 C
BRANCH  34  35
ATOM     35  C   UNL     1      27.264  11.907  -6.282  1.00  0.00     0.081 C
BRANCH  35  36
ATOM     36  N   UNL     1      28.290  12.940  -6.451  1.00  0.00    -0.317 NA
ATOM     37  H   UNL     1      29.087  12.539  -6.947  1.00  0.00     0.122 HD
BRANCH  36  38
ATOM     38  C   UNL     1      27.850  14.152  -7.146  1.00  0.00     0.082 C
ATOM     39  G   UNL     1      27.583  15.330  -6.197  1.00  0.00     0.000 C
ENDBRANCH  36  38
ENDBRANCH  35  36
ENDBRANCH  34  35
ENDBRANCH  33  34
ENDBRANCH  30  33
ENDBRANCH   7  30
TORSDOF 1
ENDMDL
MODEL 7
REMARK VINA RESULT:      -7.7      1.760      4.838
REMARK SMILES CC(C)(C)[C@H]1NC(=O)c2c[nH]c3ncc(nc23)[C@]2(CCCNCC[C@@]3(C#N)CN(C3)C1=O)CC2
REMARK SMILES IDX 9 1 10 2 11 3 12 4 13 5 14 6 15 7 16 8 17 9 7 11 6 12 8 13
REMARK SMILES IDX 5 15 2 16 1 17 3 18 4 19 31 20 32 21 29 22 28 23 30 24 25 25
REMARK SMILES IDX 26 26 27 27 24 28 18 30 34 31 33 32 19 33 20 34 21 35 22 36
REMARK SMILES IDX 23 38
REMARK H PARENT 11 10 6 14 22 37
REMARK Flexibility Score:  115.900
ROOT
ATOM      1  C   UNL     1      29.232  11.654  -4.545  1.00  0.00     0.085 A
ATOM      2  C   UNL     1      28.228  11.008  -5.263  1.00  0.00     0.100 A
ATOM      3  N   UNL     1      28.528   9.670  -5.321  1.00  0.00    -0.344 N
ATOM      4  C   UNL     1      29.717   9.442  -4.693  1.00  0.00     0.156 A
ATOM      5  N   UNL     1      30.347   8.256  -4.622  1.00  0.00    -0.235 NA
ATOM      6  C   UNL     1      31.528   8.383  -3.959  1.00  0.00     0.138 A
ATOM      7  C   UNL     1      32.033   9.564  -3.394  1.00  0.00     0.066 A
ATOM      8  N   UNL     1      31.338  10.728  -3.490  1.00  0.00    -0.246 NA
ATOM      9  C   UNL     1      30.164  10.648  -4.166  1.00  0.00     0.120 A
ATOM     10  H   UNL     1      27.985   8.946  -5.773  1.00  0.00     0.168 HD
ENDROOT
BRANCH   1  11
ATOM     11  C   UNL     1      29.315  13.077  -4.262  1.00  0.00     0.255 C
ATOM     12  N   UNL     1      29.566  13.848  -5.376  1.00  0.00    -0.340 N
ATOM     13  O   UNL     1      29.214  13.553  -3.138  1.00  0.00    -0.269 OA
ATOM     14  H   UNL     1      29.725  13.387  -6.259  1.00  0.00     0.164 HD
BRANCH  12  15
ATOM     15  C   UNL     1      29.623  15.308  -5.309  1.00  0.00     0.177 C
BRANCH  15  16
ATOM     16  C   UNL     1      28.381  15.954  -6.020  1.00  0.00    -0.009 C
ATOM     17  C   UNL     1      27.986  17.285  -5.343  1.00  0.00     0.013 C
ATOM     18  C   UNL     1      28.642  16.231  -7.512  1.00  0.00     0.013 C
ATOM     19  C   UNL     1      27.160  15.010  -5.902  1.00  0.00     0.013 C
ENDBRANCH  15  16
BRANCH  15  20
ATOM     20  C   UNL     1      30.970  15.924  -5.791  1.00  0.00     0.245 C
ATOM     21  O   UNL     1      31.856  15.194  -6.253  1.00  0.00    -0.272 OA
BRANCH  20  22
ATOM     22  N   UNL     1      31.245  17.242  -5.560  1.00  0.00    -0.338 N
ATOM     23  C   UNL     1      31.463  18.281  -6.552  1.00  0.00     0.143 C
ATOM     24  C   UNL     1      31.411  18.099  -4.412  1.00  0.00     0.143 C
ATOM     25  C   UNL     1      31.605  19.288  -5.388  1.00  0.00     0.094 C
ATOM     26  C   UNL     1      32.923  19.891  -5.314  1.00  0.00     0.073 C
ATOM     27  N   UNL     1      33.979  20.364  -5.227  1.00  0.00    -0.198 NA
BRANCH  25  28
ATOM     28  C   UNL     1      30.472  20.332  -5.404  1.00  0.00     0.041 C
ATOM     29  G   UNL     1      30.930  21.692  -5.953  1.00  0.00     0.000 C
ENDBRANCH  25  28
ENDBRANCH  20  22
ENDBRANCH  15  20
ENDBRANCH  12  15
ENDBRANCH   1  11
BRANCH   7  30
ATOM     30  C   UNL     1      33.410   9.630  -2.725  1.00  0.00     0.014 C
ATOM     31  C   UNL     1      34.084   8.382  -2.172  1.00  0.00     0.014 C
ATOM     32  C   UNL     1      33.438   9.348  -1.227  1.00  0.00     0.014 C
BRANCH  30  33
ATOM     33  C   UNL     1      34.303  10.776  -3.190  1.00  0.00     0.015 C
BRANCH  33  34
ATOM     34  C   UNL     1      33.594  12.135  -3.224  1.00  0.00     0.016 C
BRANCH  34  35
ATOM     35  C   UNL     1      34.167  13.073  -2.158  1.00  0.00     0.081 C
BRANCH  35  36
ATOM     36  N   UNL     1      34.564  14.383  -2.679  1.00  0.00    -0.317 NA
ATOM     37  H   UNL     1      35.225  14.250  -3.446  1.00  0.00     0.122 HD
BRANCH  36  38
ATOM     38  C   UNL     1      33.463  15.235  -3.136  1.00  0.00     0.082 C
ATOM     39  G   UNL     1      32.194  15.094  -2.282  1.00  0.00     0.000 C
ENDBRANCH  36  38
ENDBRANCH  35  36
ENDBRANCH  34  35
ENDBRANCH  33  34
ENDBRANCH  30  33
ENDBRANCH   7  30
TORSDOF 1
ENDMDL
MODEL 8
REMARK VINA RESULT:      -7.7      1.920      2.707
REMARK SMILES CC(C)(C)[C@H]1NC(=O)c2c[nH]c3ncc(nc23)[C@]2(CCCNCC[C@@]3(C#N)CN(C3)C1=O)CC2
REMARK SMILES IDX 9 1 10 2 11 3 12 4 13 5 14 6 15 7 16 8 17 9 7 11 6 12 8 13
REMARK SMILES IDX 5 15 2 16 1 17 3 18 4 19 31 20 32 21 29 22 28 23 30 24 25 25
REMARK SMILES IDX 26 26 27 27 24 28 18 30 34 31 33 32 19 33 20 34 21 35 22 36
REMARK SMILES IDX 23 38
REMARK H PARENT 11 10 6 14 22 37
REMARK Flexibility Score:  115.900
ROOT
ATOM      1  C   UNL     1      32.562  14.729  -2.904  1.00  0.00     0.085 A
ATOM      2  C   UNL     1      33.718  15.492  -2.753  1.00  0.00     0.100 A
ATOM      3  N   UNL     1      34.798  14.644  -2.733  1.00  0.00    -0.344 N
ATOM      4  C   UNL     1      34.365  13.354  -2.829  1.00  0.00     0.156 A
ATOM      5  N   UNL     1      35.149  12.262  -2.769  1.00  0.00    -0.235 NA
ATOM      6  C   UNL     1      34.397  11.132  -2.857  1.00  0.00     0.138 A
ATOM      7  C   UNL     1      33.004  11.079  -3.016  1.00  0.00     0.066 A
ATOM      8  N   UNL     1      32.272  12.222  -3.083  1.00  0.00    -0.246 NA
ATOM      9  C   UNL     1      32.983  13.372  -2.974  1.00  0.00     0.120 A
ATOM     10  H   UNL     1      35.770  14.903  -2.639  1.00  0.00     0.168 HD
ENDROOT
BRANCH   1  11
ATOM     11  C   UNL     1      31.198  15.228  -2.958  1.00  0.00     0.255 C
ATOM     12  N   UNL     1      30.830  15.698  -4.200  1.00  0.00    -0.340 N
ATOM     13  O   UNL     1      30.451  15.270  -1.988  1.00  0.00    -0.269 OA
ATOM     14  H   UNL     1      31.521  15.715  -4.936  1.00  0.00     0.164 HD
BRANCH  12  15
ATOM     15  C   UNL     1      29.479  16.184  -4.474  1.00  0.00     0.177 C
BRANCH  15  16
ATOM     16  C   UNL     1      28.817  15.379  -5.649  1.00  0.00    -0.009 C
ATOM     17  C   UNL     1      28.984  16.123  -6.992  1.00  0.00     0.013 C
ATOM     18  C   UNL     1      29.417  13.969  -5.800  1.00  0.00     0.013 C
ATOM     19  C   UNL     1      27.296  15.240  -5.398  1.00  0.00     0.013 C
ENDBRANCH  15  16
BRANCH  15  20
ATOM     20  C   UNL     1      29.375  17.725  -4.677  1.00  0.00     0.245 C
ATOM     21  O   UNL     1      28.272  18.283  -4.642  1.00  0.00    -0.272 OA
BRANCH  20  22
ATOM     22  N   UNL     1      30.474  18.444  -5.054  1.00  0.00    -0.338 N
ATOM     23  C   UNL     1      30.781  18.948  -6.382  1.00  0.00     0.143 C
ATOM     24  C   UNL     1      31.656  18.973  -4.420  1.00  0.00     0.143 C
ATOM     25  C   UNL     1      32.049  19.599  -5.784  1.00  0.00     0.094 C
ATOM     26  C   UNL     1      33.279  19.062  -6.335  1.00  0.00     0.073 C
ATOM     27  N   UNL     1      34.272  18.627  -6.750  1.00  0.00    -0.198 NA
BRANCH  25  28
ATOM     28  C   UNL     1      31.983  21.136  -5.859  1.00  0.00     0.041 C
ATOM     29  G   UNL     1      33.369  21.792  -5.770  1.00  0.00     0.000 C
ENDBRANCH  25  28
ENDBRANCH  20  22
ENDBRANCH  15  20
ENDBRANCH  12  15
ENDBRANCH   1  11
BRANCH   7  30
ATOM     30  C   UNL     1      32.231   9.756  -3.036  1.00  0.00     0.014 C
ATOM     31  C   UNL     1      31.953   8.978  -1.757  1.00  0.00     0.014 C
ATOM     32  C   UNL     1      33.033   8.509  -2.682  1.00  0.00     0.014 C
BRANCH  30  33
ATOM     33  C   UNL     1      31.251   9.594  -4.195  1.00  0.00     0.015 C
BRANCH  33  34
ATOM     34  C   UNL     1      29.886  10.244  -3.941  1.00  0.00     0.016 C
BRANCH  34  35
ATOM     35  C   UNL     1      28.880   9.830  -5.020  1.00  0.00     0.081 C
BRANCH  35  36
ATOM     36  N   UNL     1      29.505   9.342  -6.251  1.00  0.00    -0.317 NA
ATOM     37  H   UNL     1      30.493   9.157  -6.071  1.00  0.00     0.122 HD
BRANCH  36  38
ATOM     38  C   UNL     1      28.891   8.148  -6.837  1.00  0.00     0.082 C
ATOM     39  G   UNL     1      29.119   8.031  -8.351  1.00  0.00     0.000 C
ENDBRANCH  36  38
ENDBRANCH  35  36
ENDBRANCH  34  35
ENDBRANCH  33  34
ENDBRANCH  30  33
ENDBRANCH   7  30
TORSDOF 1
ENDMDL
MODEL 9
REMARK VINA RESULT:      -7.6      1.150      1.419
REMARK SMILES CC(C)(C)[C@H]1NC(=O)c2c[nH]c3ncc(nc23)[C@]2(CCCNCC[C@@]3(C#N)CN(C3)C1=O)CC2
REMARK SMILES IDX 9 1 10 2 11 3 12 4 13 5 14 6 15 7 16 8 17 9 7 11 6 12 8 13
REMARK SMILES IDX 5 15 2 16 1 17 3 18 4 19 31 20 32 21 29 22 28 23 30 24 25 25
REMARK SMILES IDX 26 26 27 27 24 28 18 30 34 31 33 32 19 33 20 34 21 35 22 36
REMARK SMILES IDX 23 38
REMARK H PARENT 11 10 6 14 22 37
REMARK Flexibility Score:  115.900
ROOT
ATOM      1  C   UNL     1      34.500  12.460  -2.451  1.00  0.00     0.085 A
ATOM      2  C   UNL     1      35.611  12.098  -1.693  1.00  0.00     0.100 A
ATOM      3  N   UNL     1      35.622  10.731  -1.565  1.00  0.00    -0.344 N
ATOM      4  C   UNL     1      34.527  10.207  -2.188  1.00  0.00     0.156 A
ATOM      5  N   UNL     1      34.184   8.906  -2.199  1.00  0.00    -0.235 NA
ATOM      6  C   UNL     1      33.018   8.728  -2.875  1.00  0.00     0.138 A
ATOM      7  C   UNL     1      32.268   9.732  -3.506  1.00  0.00     0.066 A
ATOM      8  N   UNL     1      32.679  11.027  -3.469  1.00  0.00    -0.246 NA
ATOM      9  C   UNL     1      33.828  11.251  -2.782  1.00  0.00     0.120 A
ATOM     10  H   UNL     1      36.306  10.174  -1.072  1.00  0.00     0.168 HD
ENDROOT
BRANCH   1  11
ATOM     11  C   UNL     1      34.102  13.811  -2.812  1.00  0.00     0.255 C
ATOM     12  N   UNL     1      32.792  13.907  -3.232  1.00  0.00    -0.340 N
ATOM     13  O   UNL     1      34.860  14.772  -2.788  1.00  0.00    -0.269 OA
ATOM     14  H   UNL     1      32.246  13.063  -3.311  1.00  0.00     0.164 HD
BRANCH  12  15
ATOM     15  C   UNL     1      32.185  15.191  -3.579  1.00  0.00     0.177 C
BRANCH  15  16
ATOM     16  C   UNL     1      30.699  15.267  -3.074  1.00  0.00    -0.009 C
ATOM     17  C   UNL     1      29.931  13.972  -3.418  1.00  0.00     0.013 C
ATOM     18  C   UNL     1      30.612  15.490  -1.553  1.00  0.00     0.013 C
ATOM     19  C   UNL     1      29.964  16.429  -3.783  1.00  0.00     0.013 C
ENDBRANCH  15  16
BRANCH  15  20
ATOM     20  C   UNL     1      32.323  15.586  -5.079  1.00  0.00     0.245 C
ATOM     21  O   UNL     1      32.507  14.714  -5.936  1.00  0.00    -0.272 OA
BRANCH  20  22
ATOM     22  N   UNL     1      32.404  16.902  -5.439  1.00  0.00    -0.338 N
ATOM     23  C   UNL     1      32.263  17.458  -6.774  1.00  0.00     0.143 C
ATOM     24  C   UNL     1      32.618  18.165  -4.776  1.00  0.00     0.143 C
ATOM     25  C   UNL     1      32.431  18.862  -6.149  1.00  0.00     0.094 C
ATOM     26  C   UNL     1      33.619  19.554  -6.615  1.00  0.00     0.073 C
ATOM     27  N   UNL     1      34.576  20.111  -6.961  1.00  0.00    -0.198 NA
BRANCH  25  28
ATOM     28  C   UNL     1      31.152  19.705  -6.303  1.00  0.00     0.041 C
ATOM     29  G   UNL     1      31.361  21.174  -5.908  1.00  0.00     0.000 C
ENDBRANCH  25  28
ENDBRANCH  20  22
ENDBRANCH  15  20
ENDBRANCH  12  15
ENDBRANCH   1  11
BRANCH   7  30
ATOM     30  C   UNL     1      30.925   9.448  -4.187  1.00  0.00     0.014 C
ATOM     31  C   UNL     1      30.276  10.463  -5.118  1.00  0.00     0.014 C
ATOM     32  C   UNL     1      29.749  10.301  -3.725  1.00  0.00     0.014 C
BRANCH  30  33
ATOM     33  C   UNL     1      30.612   7.971  -4.412  1.00  0.00     0.015 C
BRANCH  33  34
ATOM     34  C   UNL     1      29.900   7.689  -5.740  1.00  0.00     0.016 C
BRANCH  34  35
ATOM     35  C   UNL     1      28.695   6.768  -5.524  1.00  0.00     0.081 C
BRANCH  35  36
ATOM     36  N   UNL     1      27.951   6.476  -6.752  1.00  0.00    -0.317 NA
ATOM     37  H   UNL     1      27.591   7.350  -7.138  1.00  0.00     0.122 HD
BRANCH  36  38
ATOM     38  C   UNL     1      28.705   5.767  -7.789  1.00  0.00     0.082 C
ATOM     39  G   UNL     1      29.233   4.400  -7.325  1.00  0.00     0.000 C
ENDBRANCH  36  38
ENDBRANCH  35  36
ENDBRANCH  34  35
ENDBRANCH  33  34
ENDBRANCH  30  33
ENDBRANCH   7  30
TORSDOF 1
ENDMDL
