MODEL 1
REMARK VINA RESULT:      -8.1      0.000      0.000
REMARK SMILES O=C1Nc2c[nH]nc2-c2nc3ccc(cc3[nH]2)CN2CCOC[C@H]2CCCCCC2(CC2)N1
REMARK SMILES IDX 9 1 10 2 11 3 12 4 13 5 14 6 15 7 16 8 17 9 8 11 4 12 5 13
REMARK SMILES IDX 6 14 7 15 3 17 1 18 2 19 33 20 30 23 31 24 32 25 29 26 28 27
REMARK SMILES IDX 18 29 19 30 20 31 24 32 21 33 23 34 22 35 25 36 26 37 27 38
REMARK H PARENT 17 10 6 16 3 21 33 22
REMARK Flexibility Score:   58.900
ROOT
ATOM      1  C   UNL     1      29.494  13.211  -4.985  1.00  0.00     0.161 A
ATOM      2  N   UNL     1      29.547  13.891  -3.850  1.00  0.00    -0.227 NA
ATOM      3  C   UNL     1      30.354  14.973  -4.099  1.00  0.00     0.089 A
ATOM      4  C   UNL     1      30.844  15.959  -3.234  1.00  0.00     0.031 A
ATOM      5  C   UNL     1      31.713  16.933  -3.752  1.00  0.00     0.007 A
ATOM      6  C   UNL     1      32.060  16.963  -5.116  1.00  0.00    -0.032 A
ATOM      7  C   UNL     1      31.516  16.011  -5.994  1.00  0.00     0.033 A
ATOM      8  C   UNL     1      30.711  15.020  -5.437  1.00  0.00     0.066 A
ATOM      9  N   UNL     1      30.122  13.912  -5.975  1.00  0.00    -0.337 N
ATOM     10  H   UNL     1      30.132  13.657  -6.952  1.00  0.00     0.168 HD
ENDROOT
BRANCH   1  11
ATOM     11  C   UNL     1      28.834  11.780  -5.132  1.00  0.00     0.151 A
ATOM     12  C   UNL     1      29.242  10.488  -4.654  1.00  0.00     0.092 A
ATOM     13  C   UNL     1      28.186   9.660  -4.985  1.00  0.00     0.132 A
ATOM     14  N   UNL     1      27.273  10.429  -5.633  1.00  0.00    -0.283 N
ATOM     15  N   UNL     1      27.620  11.710  -5.709  1.00  0.00    -0.170 NA
ATOM     16  H   UNL     1      26.380  10.153  -6.028  1.00  0.00     0.189 HD
BRANCH  12  17
ATOM     17  N   UNL     1      30.295   9.967  -3.917  1.00  0.00    -0.304 N
ATOM     18  O   UNL     1      32.120  11.173  -4.642  1.00  0.00    -0.248 OA
ATOM     19  C   UNL     1      31.581  10.429  -3.832  1.00  0.00     0.319 C
ATOM     20  N   UNL     1      32.222   9.944  -2.712  1.00  0.00    -0.332 N
ATOM     21  H   UNL     1      30.138   9.056  -3.513  1.00  0.00     0.172 HD
ATOM     22  H   UNL     1      31.660   9.507  -1.995  1.00  0.00     0.165 HD
BRANCH  20  23
ATOM     23  C   UNL     1      33.620  10.152  -2.430  1.00  0.00     0.042 C
ATOM     24  C   UNL     1      34.630   9.543  -3.381  1.00  0.00     0.031 C
ATOM     25  C   UNL     1      34.433   8.936  -2.025  1.00  0.00     0.031 C
BRANCH  23  26
ATOM     26  C   UNL     1      34.002  11.480  -1.783  1.00  0.00     0.028 C
BRANCH  26  27
ATOM     27  C   UNL     1      34.645  12.469  -2.763  1.00  0.00     0.002 C
ATOM     28  G   UNL     1      33.789  13.716  -3.022  1.00  0.00     0.000 C
ENDBRANCH  26  27
ENDBRANCH  23  26
ENDBRANCH  20  23
ENDBRANCH  12  17
ENDBRANCH   1  11
BRANCH   6  29
ATOM     29  C   UNL     1      33.040  18.002  -5.626  1.00  0.00     0.120 C
BRANCH  29  30
ATOM     30  N   UNL     1      32.381  19.288  -5.913  1.00  0.00    -0.292 NA
ATOM     31  C   UNL     1      33.286  20.420  -5.643  1.00  0.00     0.113 C
ATOM     32  C   UNL     1      31.069  19.452  -5.226  1.00  0.00     0.083 C
ATOM     33  C   UNL     1      32.543  21.763  -5.668  1.00  0.00     0.175 C
ATOM     34  C   UNL     1      31.109  20.586  -4.167  1.00  0.00     0.179 C
ATOM     35  O   UNL     1      31.480  21.856  -4.709  1.00  0.00    -0.378 OA
BRANCH  32  36
ATOM     36  C   UNL     1      29.979  19.672  -6.307  1.00  0.00     0.021 C
BRANCH  36  37
ATOM     37  C   UNL     1      28.956  18.529  -6.366  1.00  0.00     0.002 C
BRANCH  37  38
ATOM     38  C   UNL     1      28.402  18.127  -4.995  1.00  0.00     0.000 C
ATOM     39  G   UNL     1      27.469  16.909  -4.975  1.00  0.00     0.000 C
ENDBRANCH  37  38
ENDBRANCH  36  37
ENDBRANCH  32  36
ENDBRANCH  29  30
ENDBRANCH   6  29
TORSDOF 0
ENDMDL
MODEL 2
REMARK VINA RESULT:      -7.6      1.666      3.029
REMARK SMILES O=C1Nc2c[nH]nc2-c2nc3ccc(cc3[nH]2)CN2CCOC[C@H]2CCCCCC2(CC2)N1
REMARK SMILES IDX 9 1 10 2 11 3 12 4 13 5 14 6 15 7 16 8 17 9 8 11 4 12 5 13
REMARK SMILES IDX 6 14 7 15 3 17 1 18 2 19 33 20 30 23 31 24 32 25 29 26 28 27
REMARK SMILES IDX 18 29 19 30 20 31 24 32 21 33 23 34 22 35 25 36 26 37 27 38
REMARK H PARENT 17 10 6 16 3 21 33 22
REMARK Flexibility Score:   58.900
ROOT
ATOM      1  C   UNL     1      27.552  11.970  -6.194  1.00  0.00     0.161 A
ATOM      2  N   UNL     1      26.818  12.623  -5.304  1.00  0.00    -0.227 NA
ATOM      3  C   UNL     1      27.167  13.944  -5.430  1.00  0.00     0.089 A
ATOM      4  C   UNL     1      26.791  15.058  -4.670  1.00  0.00     0.031 A
ATOM      5  C   UNL     1      27.353  16.306  -4.987  1.00  0.00     0.007 A
ATOM      6  C   UNL     1      28.240  16.464  -6.069  1.00  0.00    -0.032 A
ATOM      7  C   UNL     1      28.565  15.356  -6.869  1.00  0.00     0.033 A
ATOM      8  C   UNL     1      28.043  14.121  -6.488  1.00  0.00     0.066 A
ATOM      9  N   UNL     1      28.238  12.859  -6.971  1.00  0.00    -0.337 N
ATOM     10  H   UNL     1      28.787  12.619  -7.784  1.00  0.00     0.168 HD
ENDROOT
BRANCH   1  11
ATOM     11  C   UNL     1      27.635  10.392  -6.289  1.00  0.00     0.151 A
ATOM     12  C   UNL     1      28.699   9.474  -5.991  1.00  0.00     0.092 A
ATOM     13  C   UNL     1      28.119   8.229  -6.145  1.00  0.00     0.132 A
ATOM     14  N   UNL     1      26.835   8.440  -6.534  1.00  0.00    -0.283 N
ATOM     15  N   UNL     1      26.507   9.727  -6.600  1.00  0.00    -0.170 NA
ATOM     16  H   UNL     1      26.118   7.754  -6.749  1.00  0.00     0.189 HD
BRANCH  12  17
ATOM     17  N   UNL     1      30.003   9.552  -5.528  1.00  0.00    -0.304 N
ATOM     18  O   UNL     1      29.792  10.548  -3.461  1.00  0.00    -0.248 OA
ATOM     19  C   UNL     1      30.441   9.910  -4.281  1.00  0.00     0.319 C
ATOM     20  N   UNL     1      31.728   9.474  -4.049  1.00  0.00    -0.332 N
ATOM     21  H   UNL     1      30.723   9.481  -6.232  1.00  0.00     0.172 HD
ATOM     22  H   UNL     1      32.120   8.791  -4.682  1.00  0.00     0.165 HD
BRANCH  20  23
ATOM     23  C   UNL     1      32.496   9.817  -2.879  1.00  0.00     0.042 C
ATOM     24  C   UNL     1      33.536   8.824  -2.400  1.00  0.00     0.031 C
ATOM     25  C   UNL     1      32.262   8.989  -1.630  1.00  0.00     0.031 C
BRANCH  23  26
ATOM     26  C   UNL     1      32.815  11.295  -2.672  1.00  0.00     0.028 C
BRANCH  26  27
ATOM     27  C   UNL     1      34.145  11.722  -3.305  1.00  0.00     0.002 C
ATOM     28  G   UNL     1      34.865  12.831  -2.524  1.00  0.00     0.000 C
ENDBRANCH  26  27
ENDBRANCH  23  26
ENDBRANCH  20  23
ENDBRANCH  12  17
ENDBRANCH   1  11
BRANCH   6  29
ATOM     29  C   UNL     1      28.862  17.818  -6.348  1.00  0.00     0.120 C
BRANCH  29  30
ATOM     30  N   UNL     1      29.840  18.199  -5.313  1.00  0.00    -0.292 NA
ATOM     31  C   UNL     1      30.153  19.638  -5.384  1.00  0.00     0.113 C
ATOM     32  C   UNL     1      31.073  17.363  -5.322  1.00  0.00     0.083 C
ATOM     33  C   UNL     1      31.361  20.002  -4.509  1.00  0.00     0.175 C
ATOM     34  C   UNL     1      32.327  18.186  -5.719  1.00  0.00     0.179 C
ATOM     35  O   UNL     1      32.565  19.307  -4.864  1.00  0.00    -0.378 OA
BRANCH  32  36
ATOM     36  C   UNL     1      31.209  16.685  -3.933  1.00  0.00     0.021 C
BRANCH  36  37
ATOM     37  C   UNL     1      31.980  15.359  -3.989  1.00  0.00     0.002 C
BRANCH  37  38
ATOM     38  C   UNL     1      31.104  14.151  -4.337  1.00  0.00     0.000 C
ATOM     39  G   UNL     1      31.570  13.300  -5.527  1.00  0.00     0.000 C
ENDBRANCH  37  38
ENDBRANCH  36  37
ENDBRANCH  32  36
ENDBRANCH  29  30
ENDBRANCH   6  29
TORSDOF 0
ENDMDL
MODEL 3
REMARK VINA RESULT:      -7.5      3.313      9.785
REMARK SMILES O=C1Nc2c[nH]nc2-c2nc3ccc(cc3[nH]2)CN2CCOC[C@H]2CCCCCC2(CC2)N1
REMARK SMILES IDX 9 1 10 2 11 3 12 4 13 5 14 6 15 7 16 8 17 9 8 11 4 12 5 13
REMARK SMILES IDX 6 14 7 15 3 17 1 18 2 19 33 20 30 23 31 24 32 25 29 26 28 27
REMARK SMILES IDX 18 29 19 30 20 31 24 32 21 33 23 34 22 35 25 36 26 37 27 38
REMARK H PARENT 17 10 6 16 3 21 33 22
REMARK Flexibility Score:   58.900
ROOT
ATOM      1  C   UNL     1      32.928   9.938  -2.849  1.00  0.00     0.161 A
ATOM      2  N   UNL     1      31.989  10.615  -3.493  1.00  0.00    -0.227 NA
ATOM      3  C   UNL     1      31.188   9.672  -4.087  1.00  0.00     0.089 A
ATOM      4  C   UNL     1      30.117   9.822  -4.977  1.00  0.00     0.031 A
ATOM      5  C   UNL     1      29.503   8.666  -5.485  1.00  0.00     0.007 A
ATOM      6  C   UNL     1      29.908   7.377  -5.087  1.00  0.00    -0.032 A
ATOM      7  C   UNL     1      30.940   7.233  -4.146  1.00  0.00     0.033 A
ATOM      8  C   UNL     1      31.573   8.396  -3.712  1.00  0.00     0.066 A
ATOM      9  N   UNL     1      32.652   8.601  -2.901  1.00  0.00    -0.337 N
ATOM     10  H   UNL     1      33.158   7.883  -2.403  1.00  0.00     0.168 HD
ENDROOT
BRANCH   1  11
ATOM     11  C   UNL     1      34.192  10.602  -2.168  1.00  0.00     0.151 A
ATOM     12  C   UNL     1      34.539  11.977  -1.938  1.00  0.00     0.092 A
ATOM     13  C   UNL     1      35.695  11.909  -1.184  1.00  0.00     0.132 A
ATOM     14  N   UNL     1      35.989  10.592  -1.036  1.00  0.00    -0.283 N
ATOM     15  N   UNL     1      35.090   9.783  -1.588  1.00  0.00    -0.170 NA
ATOM     16  H   UNL     1      36.774  10.170  -0.549  1.00  0.00     0.189 HD
BRANCH  12  17
ATOM     17  N   UNL     1      33.973  13.219  -2.184  1.00  0.00    -0.304 N
ATOM     18  O   UNL     1      33.191  13.046  -4.345  1.00  0.00    -0.248 OA
ATOM     19  C   UNL     1      33.218  13.609  -3.258  1.00  0.00     0.319 C
ATOM     20  N   UNL     1      32.483  14.742  -2.977  1.00  0.00    -0.332 N
ATOM     21  H   UNL     1      34.275  13.966  -1.577  1.00  0.00     0.172 HD
ATOM     22  H   UNL     1      32.402  15.029  -2.012  1.00  0.00     0.165 HD
BRANCH  20  23
ATOM     23  C   UNL     1      31.701  15.457  -3.954  1.00  0.00     0.042 C
ATOM     24  C   UNL     1      32.430  16.067  -5.134  1.00  0.00     0.031 C
ATOM     25  C   UNL     1      31.912  16.957  -4.046  1.00  0.00     0.031 C
BRANCH  23  26
ATOM     26  C   UNL     1      30.287  14.946  -4.213  1.00  0.00     0.028 C
BRANCH  26  27
ATOM     27  C   UNL     1      30.146  14.201  -5.546  1.00  0.00     0.002 C
ATOM     28  G   UNL     1      28.828  13.426  -5.677  1.00  0.00     0.000 C
ENDBRANCH  26  27
ENDBRANCH  23  26
ENDBRANCH  20  23
ENDBRANCH  12  17
ENDBRANCH   1  11
BRANCH   6  29
ATOM     29  C   UNL     1      29.251   6.154  -5.696  1.00  0.00     0.120 C
BRANCH  29  30
ATOM     30  N   UNL     1      27.817   6.076  -5.366  1.00  0.00    -0.292 NA
ATOM     31  C   UNL     1      27.522   4.871  -4.568  1.00  0.00     0.113 C
ATOM     32  C   UNL     1      26.925   6.186  -6.554  1.00  0.00     0.083 C
ATOM     33  C   UNL     1      26.011   4.623  -4.449  1.00  0.00     0.175 C
ATOM     34  C   UNL     1      26.149   4.869  -6.818  1.00  0.00     0.179 C
ATOM     35  O   UNL     1      25.351   4.447  -5.710  1.00  0.00    -0.378 OA
BRANCH  32  36
ATOM     36  C   UNL     1      25.991   7.407  -6.348  1.00  0.00     0.021 C
BRANCH  36  37
ATOM     37  C   UNL     1      25.896   8.303  -7.591  1.00  0.00     0.002 C
BRANCH  37  38
ATOM     38  C   UNL     1      27.234   8.501  -8.311  1.00  0.00     0.000 C
ATOM     39  G   UNL     1      27.202   9.396  -9.558  1.00  0.00     0.000 C
ENDBRANCH  37  38
ENDBRANCH  36  37
ENDBRANCH  32  36
ENDBRANCH  29  30
ENDBRANCH   6  29
TORSDOF 0
ENDMDL
MODEL 4
REMARK VINA RESULT:      -7.5      2.352      8.227
REMARK SMILES O=C1Nc2c[nH]nc2-c2nc3ccc(cc3[nH]2)CN2CCOC[C@H]2CCCCCC2(CC2)N1
REMARK SMILES IDX 9 1 10 2 11 3 12 4 13 5 14 6 15 7 16 8 17 9 8 11 4 12 5 13
REMARK SMILES IDX 6 14 7 15 3 17 1 18 2 19 33 20 30 23 31 24 32 25 29 26 28 27
REMARK SMILES IDX 18 29 19 30 20 31 24 32 21 33 23 34 22 35 25 36 26 37 27 38
REMARK H PARENT 17 10 6 16 3 21 33 22
REMARK Flexibility Score:   58.900
ROOT
ATOM      1  C   UNL     1      28.126  15.528  -6.352  1.00  0.00     0.161 A
ATOM      2  N   UNL     1      27.633  14.500  -5.678  1.00  0.00    -0.227 NA
ATOM      3  C   UNL     1      28.709  13.707  -5.366  1.00  0.00     0.089 A
ATOM      4  C   UNL     1      28.760  12.444  -4.763  1.00  0.00     0.031 A
ATOM      5  C   UNL     1      30.012  11.824  -4.614  1.00  0.00     0.007 A
ATOM      6  C   UNL     1      31.204  12.459  -5.013  1.00  0.00    -0.032 A
ATOM      7  C   UNL     1      31.154  13.752  -5.559  1.00  0.00     0.033 A
ATOM      8  C   UNL     1      29.892  14.311  -5.754  1.00  0.00     0.066 A
ATOM      9  N   UNL     1      29.491  15.477  -6.341  1.00  0.00    -0.337 N
ATOM     10  H   UNL     1      30.103  16.197  -6.697  1.00  0.00     0.168 HD
ENDROOT
BRANCH   1  11
ATOM     11  C   UNL     1      27.241  16.615  -7.086  1.00  0.00     0.151 A
ATOM     12  C   UNL     1      27.498  17.990  -7.414  1.00  0.00     0.092 A
ATOM     13  C   UNL     1      26.402  18.364  -8.168  1.00  0.00     0.132 A
ATOM     14  N   UNL     1      25.579  17.286  -8.225  1.00  0.00    -0.283 N
ATOM     15  N   UNL     1      26.069  16.213  -7.611  1.00  0.00    -0.170 NA
ATOM     16  H   UNL     1      24.678  17.201  -8.685  1.00  0.00     0.189 HD
BRANCH  12  17
ATOM     17  N   UNL     1      28.538  18.893  -7.253  1.00  0.00    -0.304 N
ATOM     18  O   UNL     1      29.194  18.587  -5.066  1.00  0.00    -0.248 OA
ATOM     19  C   UNL     1      29.398  19.016  -6.194  1.00  0.00     0.319 C
ATOM     20  N   UNL     1      30.540  19.704  -6.545  1.00  0.00    -0.332 N
ATOM     21  H   UNL     1      28.574  19.643  -7.926  1.00  0.00     0.172 HD
ATOM     22  H   UNL     1      30.725  19.848  -7.528  1.00  0.00     0.165 HD
BRANCH  20  23
ATOM     23  C   UNL     1      31.560  20.102  -5.608  1.00  0.00     0.042 C
ATOM     24  C   UNL     1      31.140  20.945  -4.421  1.00  0.00     0.031 C
ATOM     25  C   UNL     1      31.904  21.578  -5.543  1.00  0.00     0.031 C
BRANCH  23  26
ATOM     26  C   UNL     1      32.706  19.120  -5.379  1.00  0.00     0.028 C
BRANCH  26  27
ATOM     27  C   UNL     1      32.507  17.779  -6.098  1.00  0.00     0.002 C
ATOM     28  G   UNL     1      33.504  17.545  -7.241  1.00  0.00     0.000 C
ENDBRANCH  26  27
ENDBRANCH  23  26
ENDBRANCH  20  23
ENDBRANCH  12  17
ENDBRANCH   1  11
BRANCH   6  29
ATOM     29  C   UNL     1      32.530  11.735  -4.881  1.00  0.00     0.120 C
BRANCH  29  30
ATOM     30  N   UNL     1      32.932  11.576  -3.472  1.00  0.00    -0.292 NA
ATOM     31  C   UNL     1      33.710  12.739  -3.009  1.00  0.00     0.113 C
ATOM     32  C   UNL     1      33.636  10.292  -3.195  1.00  0.00     0.083 C
ATOM     33  C   UNL     1      34.370  12.477  -1.647  1.00  0.00     0.175 C
ATOM     34  C   UNL     1      35.116  10.520  -2.791  1.00  0.00     0.179 C
ATOM     35  O   UNL     1      35.270  11.360  -1.644  1.00  0.00    -0.378 OA
BRANCH  32  36
ATOM     36  C   UNL     1      32.828   9.518  -2.120  1.00  0.00     0.021 C
BRANCH  36  37
ATOM     37  C   UNL     1      31.444   9.077  -2.615  1.00  0.00     0.002 C
BRANCH  37  38
ATOM     38  C   UNL     1      31.494   8.130  -3.819  1.00  0.00     0.000 C
ATOM     39  G   UNL     1      30.280   8.168  -4.758  1.00  0.00     0.000 C
ENDBRANCH  37  38
ENDBRANCH  36  37
ENDBRANCH  32  36
ENDBRANCH  29  30
ENDBRANCH   6  29
TORSDOF 0
ENDMDL
MODEL 5
REMARK VINA RESULT:      -7.5      1.713      4.309
REMARK SMILES O=C1Nc2c[nH]nc2-c2nc3ccc(cc3[nH]2)CN2CCOC[C@H]2CCCCCC2(CC2)N1
REMARK SMILES IDX 9 1 10 2 11 3 12 4 13 5 14 6 15 7 16 8 17 9 8 11 4 12 5 13
REMARK SMILES IDX 6 14 7 15 3 17 1 18 2 19 33 20 30 23 31 24 32 25 29 26 28 27
REMARK SMILES IDX 18 29 19 30 20 31 24 32 21 33 23 34 22 35 25 36 26 37 27 38
REMARK H PARENT 17 10 6 16 3 21 33 22
REMARK Flexibility Score:   58.900
ROOT
ATOM      1  C   UNL     1      32.744  12.357  -3.672  1.00  0.00     0.161 A
ATOM      2  N   UNL     1      32.494  12.701  -4.927  1.00  0.00    -0.227 NA
ATOM      3  C   UNL     1      32.241  14.049  -4.902  1.00  0.00     0.089 A
ATOM      4  C   UNL     1      31.812  14.911  -5.919  1.00  0.00     0.031 A
ATOM      5  C   UNL     1      31.571  16.257  -5.599  1.00  0.00     0.007 A
ATOM      6  C   UNL     1      31.792  16.759  -4.302  1.00  0.00    -0.032 A
ATOM      7  C   UNL     1      32.283  15.906  -3.300  1.00  0.00     0.033 A
ATOM      8  C   UNL     1      32.449  14.563  -3.633  1.00  0.00     0.066 A
ATOM      9  N   UNL     1      32.801  13.474  -2.889  1.00  0.00    -0.337 N
ATOM     10  H   UNL     1      33.076  13.491  -1.918  1.00  0.00     0.168 HD
ENDROOT
BRANCH   1  11
ATOM     11  C   UNL     1      32.906  10.863  -3.177  1.00  0.00     0.151 A
ATOM     12  C   UNL     1      32.212   9.658  -3.540  1.00  0.00     0.092 A
ATOM     13  C   UNL     1      32.896   8.663  -2.867  1.00  0.00     0.132 A
ATOM     14  N   UNL     1      33.877   9.275  -2.154  1.00  0.00    -0.283 N
ATOM     15  N   UNL     1      33.926  10.590  -2.343  1.00  0.00    -0.170 NA
ATOM     16  H   UNL     1      34.564   8.856  -1.535  1.00  0.00     0.189 HD
BRANCH  12  17
ATOM     17  N   UNL     1      31.191   9.299  -4.406  1.00  0.00    -0.304 N
ATOM     18  O   UNL     1      29.368  10.467  -3.617  1.00  0.00    -0.248 OA
ATOM     19  C   UNL     1      29.931   9.827  -4.496  1.00  0.00     0.319 C
ATOM     20  N   UNL     1      29.346   9.541  -5.712  1.00  0.00    -0.332 N
ATOM     21  H   UNL     1      31.341   8.451  -4.932  1.00  0.00     0.172 HD
ATOM     22  H   UNL     1      29.937   9.189  -6.452  1.00  0.00     0.165 HD
BRANCH  20  23
ATOM     23  C   UNL     1      27.977   9.851  -6.040  1.00  0.00     0.042 C
ATOM     24  C   UNL     1      26.888   9.206  -5.209  1.00  0.00     0.031 C
ATOM     25  C   UNL     1      27.130   8.728  -6.607  1.00  0.00     0.031 C
BRANCH  23  26
ATOM     26  C   UNL     1      27.697  11.256  -6.567  1.00  0.00     0.028 C
BRANCH  26  27
ATOM     27  C   UNL     1      27.393  12.269  -5.457  1.00  0.00     0.002 C
ATOM     28  G   UNL     1      28.431  13.396  -5.357  1.00  0.00     0.000 C
ENDBRANCH  26  27
ENDBRANCH  23  26
ENDBRANCH  20  23
ENDBRANCH  12  17
ENDBRANCH   1  11
BRANCH   6  29
ATOM     29  C   UNL     1      31.472  18.207  -3.985  1.00  0.00     0.120 C
BRANCH  29  30
ATOM     30  N   UNL     1      31.646  19.080  -5.160  1.00  0.00    -0.292 NA
ATOM     31  C   UNL     1      33.070  19.391  -5.382  1.00  0.00     0.113 C
ATOM     32  C   UNL     1      30.810  20.312  -5.116  1.00  0.00     0.083 C
ATOM     33  C   UNL     1      33.254  20.509  -6.419  1.00  0.00     0.175 C
ATOM     34  C   UNL     1      31.676  21.594  -4.996  1.00  0.00     0.179 C
ATOM     35  O   UNL     1      32.620  21.744  -6.059  1.00  0.00    -0.378 OA
BRANCH  32  36
ATOM     36  C   UNL     1      29.890  20.319  -6.364  1.00  0.00     0.021 C
BRANCH  36  37
ATOM     37  C   UNL     1      29.162  18.984  -6.577  1.00  0.00     0.002 C
BRANCH  37  38
ATOM     38  C   UNL     1      27.658  19.050  -6.290  1.00  0.00     0.000 C
ATOM     39  G   UNL     1      26.929  20.303  -6.794  1.00  0.00     0.000 C
ENDBRANCH  37  38
ENDBRANCH  36  37
ENDBRANCH  32  36
ENDBRANCH  29  30
ENDBRANCH   6  29
TORSDOF 0
ENDMDL
MODEL 6
REMARK VINA RESULT:      -7.4      1.431      2.676
REMARK SMILES O=C1Nc2c[nH]nc2-c2nc3ccc(cc3[nH]2)CN2CCOC[C@H]2CCCCCC2(CC2)N1
REMARK SMILES IDX 9 1 10 2 11 3 12 4 13 5 14 6 15 7 16 8 17 9 8 11 4 12 5 13
REMARK SMILES IDX 6 14 7 15 3 17 1 18 2 19 33 20 30 23 31 24 32 25 29 26 28 27
REMARK SMILES IDX 18 29 19 30 20 31 24 32 21 33 23 34 22 35 25 36 26 37 27 38
REMARK H PARENT 17 10 6 16 3 21 33 22
REMARK Flexibility Score:   58.900
ROOT
ATOM      1  C   UNL     1      27.855  12.608  -5.831  1.00  0.00     0.161 A
ATOM      2  N   UNL     1      26.978  13.343  -5.163  1.00  0.00    -0.227 NA
ATOM      3  C   UNL     1      27.349  14.648  -5.371  1.00  0.00     0.089 A
ATOM      4  C   UNL     1      26.848  15.832  -4.817  1.00  0.00     0.031 A
ATOM      5  C   UNL     1      27.462  17.046  -5.166  1.00  0.00     0.007 A
ATOM      6  C   UNL     1      28.527  17.098  -6.086  1.00  0.00    -0.032 A
ATOM      7  C   UNL     1      28.985  15.915  -6.688  1.00  0.00     0.033 A
ATOM      8  C   UNL     1      28.399  14.721  -6.270  1.00  0.00     0.066 A
ATOM      9  N   UNL     1      28.671  13.417  -6.569  1.00  0.00    -0.337 N
ATOM     10  H   UNL     1      29.354  13.098  -7.240  1.00  0.00     0.168 HD
ENDROOT
BRANCH   1  11
ATOM     11  C   UNL     1      27.947  11.031  -5.735  1.00  0.00     0.151 A
ATOM     12  C   UNL     1      28.759  10.172  -4.919  1.00  0.00     0.092 A
ATOM     13  C   UNL     1      28.286   8.903  -5.195  1.00  0.00     0.132 A
ATOM     14  N   UNL     1      27.306   9.044  -6.125  1.00  0.00    -0.283 N
ATOM     15  N   UNL     1      27.060  10.310  -6.446  1.00  0.00    -0.170 NA
ATOM     16  H   UNL     1      26.746   8.323  -6.568  1.00  0.00     0.189 HD
BRANCH  12  17
ATOM     17  N   UNL     1      29.730  10.325  -3.941  1.00  0.00    -0.304 N
ATOM     18  O   UNL     1      31.300   8.725  -4.472  1.00  0.00    -0.248 OA
ATOM     19  C   UNL     1      30.966   9.739  -3.873  1.00  0.00     0.319 C
ATOM     20  N   UNL     1      31.807  10.426  -3.024  1.00  0.00    -0.332 N
ATOM     21  H   UNL     1      29.436  10.808  -3.105  1.00  0.00     0.172 HD
ATOM     22  H   UNL     1      31.532  11.351  -2.727  1.00  0.00     0.165 HD
BRANCH  20  23
ATOM     23  C   UNL     1      33.124   9.970  -2.652  1.00  0.00     0.042 C
ATOM     24  C   UNL     1      33.340   8.478  -2.509  1.00  0.00     0.031 C
ATOM     25  C   UNL     1      33.275   9.335  -1.283  1.00  0.00     0.031 C
BRANCH  23  26
ATOM     26  C   UNL     1      34.306  10.788  -3.164  1.00  0.00     0.028 C
BRANCH  26  27
ATOM     27  C   UNL     1      34.331  12.222  -2.621  1.00  0.00     0.002 C
ATOM     28  G   UNL     1      35.488  12.486  -1.647  1.00  0.00     0.000 C
ENDBRANCH  26  27
ENDBRANCH  23  26
ENDBRANCH  20  23
ENDBRANCH  12  17
ENDBRANCH   1  11
BRANCH   6  29
ATOM     29  C   UNL     1      29.195  18.424  -6.398  1.00  0.00     0.120 C
BRANCH  29  30
ATOM     30  N   UNL     1      30.201  18.786  -5.385  1.00  0.00    -0.292 NA
ATOM     31  C   UNL     1      30.521  20.224  -5.447  1.00  0.00     0.113 C
ATOM     32  C   UNL     1      31.429  17.944  -5.436  1.00  0.00     0.083 C
ATOM     33  C   UNL     1      31.754  20.571  -4.600  1.00  0.00     0.175 C
ATOM     34  C   UNL     1      32.677  18.765  -5.856  1.00  0.00     0.179 C
ATOM     35  O   UNL     1      32.943  19.874  -4.995  1.00  0.00    -0.378 OA
BRANCH  32  36
ATOM     36  C   UNL     1      31.598  17.248  -4.060  1.00  0.00     0.021 C
BRANCH  36  37
ATOM     37  C   UNL     1      31.738  15.724  -4.174  1.00  0.00     0.002 C
BRANCH  37  38
ATOM     38  C   UNL     1      30.952  14.952  -3.110  1.00  0.00     0.000 C
ATOM     39  G   UNL     1      31.040  15.497  -1.677  1.00  0.00     0.000 C
ENDBRANCH  37  38
ENDBRANCH  36  37
ENDBRANCH  32  36
ENDBRANCH  29  30
ENDBRANCH   6  29
TORSDOF 0
ENDMDL
MODEL 7
REMARK VINA RESULT:      -7.4      3.277      9.514
REMARK SMILES O=C1Nc2c[nH]nc2-c2nc3ccc(cc3[nH]2)CN2CCOC[C@H]2CCCCCC2(CC2)N1
REMARK SMILES IDX 9 1 10 2 11 3 12 4 13 5 14 6 15 7 16 8 17 9 8 11 4 12 5 13
REMARK SMILES IDX 6 14 7 15 3 17 1 18 2 19 33 20 30 23 31 24 32 25 29 26 28 27
REMARK SMILES IDX 18 29 19 30 20 31 24 32 21 33 23 34 22 35 25 36 26 37 27 38
REMARK H PARENT 17 10 6 16 3 21 33 22
REMARK Flexibility Score:   58.900
ROOT
ATOM      1  C   UNL     1      31.531  11.604  -3.974  1.00  0.00     0.161 A
ATOM      2  N   UNL     1      32.049  10.480  -3.500  1.00  0.00    -0.227 NA
ATOM      3  C   UNL     1      31.333   9.464  -4.082  1.00  0.00     0.089 A
ATOM      4  C   UNL     1      31.374   8.082  -3.860  1.00  0.00     0.031 A
ATOM      5  C   UNL     1      30.475   7.264  -4.562  1.00  0.00     0.007 A
ATOM      6  C   UNL     1      29.575   7.795  -5.506  1.00  0.00    -0.032 A
ATOM      7  C   UNL     1      29.579   9.173  -5.772  1.00  0.00     0.033 A
ATOM      8  C   UNL     1      30.437   9.965  -5.012  1.00  0.00     0.066 A
ATOM      9  N   UNL     1      30.613  11.317  -4.945  1.00  0.00    -0.337 N
ATOM     10  H   UNL     1      30.153  12.000  -5.530  1.00  0.00     0.168 HD
ENDROOT
BRANCH   1  11
ATOM     11  C   UNL     1      31.906  13.047  -3.444  1.00  0.00     0.151 A
ATOM     12  C   UNL     1      31.128  14.248  -3.317  1.00  0.00     0.092 A
ATOM     13  C   UNL     1      31.974  15.127  -2.668  1.00  0.00     0.132 A
ATOM     14  N   UNL     1      33.150  14.473  -2.480  1.00  0.00    -0.283 N
ATOM     15  N   UNL     1      33.129  13.215  -2.908  1.00  0.00    -0.170 NA
ATOM     16  H   UNL     1      34.001  14.815  -2.045  1.00  0.00     0.189 HD
BRANCH  12  17
ATOM     17  N   UNL     1      29.824  14.641  -3.575  1.00  0.00    -0.304 N
ATOM     18  O   UNL     1      29.598  14.336  -5.847  1.00  0.00    -0.248 OA
ATOM     19  C   UNL     1      29.112  14.511  -4.737  1.00  0.00     0.319 C
ATOM     20  N   UNL     1      27.755  14.611  -4.515  1.00  0.00    -0.332 N
ATOM     21  H   UNL     1      29.397  15.227  -2.872  1.00  0.00     0.172 HD
ATOM     22  H   UNL     1      27.423  14.552  -3.563  1.00  0.00     0.165 HD
BRANCH  20  23
ATOM     23  C   UNL     1      26.768  14.645  -5.565  1.00  0.00     0.042 C
ATOM     24  C   UNL     1      25.417  14.017  -5.285  1.00  0.00     0.031 C
ATOM     25  C   UNL     1      26.381  13.320  -6.195  1.00  0.00     0.031 C
BRANCH  23  26
ATOM     26  C   UNL     1      26.779  15.864  -6.482  1.00  0.00     0.028 C
BRANCH  26  27
ATOM     27  C   UNL     1      26.847  17.195  -5.722  1.00  0.00     0.002 C
ATOM     28  G   UNL     1      28.115  18.006  -6.023  1.00  0.00     0.000 C
ENDBRANCH  26  27
ENDBRANCH  23  26
ENDBRANCH  20  23
ENDBRANCH  12  17
ENDBRANCH   1  11
BRANCH   6  29
ATOM     29  C   UNL     1      28.586   6.883  -6.207  1.00  0.00     0.120 C
BRANCH  29  30
ATOM     30  N   UNL     1      27.195   7.334  -6.025  1.00  0.00    -0.292 NA
ATOM     31  C   UNL     1      26.507   6.530  -4.998  1.00  0.00     0.113 C
ATOM     32  C   UNL     1      26.417   7.395  -7.293  1.00  0.00     0.083 C
ATOM     33  C   UNL     1      24.995   6.794  -4.986  1.00  0.00     0.175 C
ATOM     34  C   UNL     1      25.266   6.356  -7.316  1.00  0.00     0.179 C
ATOM     35  O   UNL     1      24.346   6.503  -6.232  1.00  0.00    -0.378 OA
BRANCH  32  36
ATOM     36  C   UNL     1      25.921   8.852  -7.488  1.00  0.00     0.021 C
BRANCH  36  37
ATOM     37  C   UNL     1      26.887   9.706  -8.321  1.00  0.00     0.002 C
BRANCH  37  38
ATOM     38  C   UNL     1      27.806   8.885  -9.232  1.00  0.00     0.000 C
ATOM     39  G   UNL     1      28.091   9.482 -10.618  1.00  0.00     0.000 C
ENDBRANCH  37  38
ENDBRANCH  36  37
ENDBRANCH  32  36
ENDBRANCH  29  30
ENDBRANCH   6  29
TORSDOF 0
ENDMDL
MODEL 8
REMARK VINA RESULT:      -7.4      2.234      4.895
REMARK SMILES O=C1Nc2c[nH]nc2-c2nc3ccc(cc3[nH]2)CN2CCOC[C@H]2CCCCCC2(CC2)N1
REMARK SMILES IDX 9 1 10 2 11 3 12 4 13 5 14 6 15 7 16 8 17 9 8 11 4 12 5 13
REMARK SMILES IDX 6 14 7 15 3 17 1 18 2 19 33 20 30 23 31 24 32 25 29 26 28 27
REMARK SMILES IDX 18 29 19 30 20 31 24 32 21 33 23 34 22 35 25 36 26 37 27 38
REMARK H PARENT 17 10 6 16 3 21 33 22
REMARK Flexibility Score:   58.900
ROOT
ATOM      1  C   UNL     1      32.930  12.109  -3.310  1.00  0.00     0.161 A
ATOM      2  N   UNL     1      33.207  13.200  -2.611  1.00  0.00    -0.227 NA
ATOM      3  C   UNL     1      32.935  14.256  -3.444  1.00  0.00     0.089 A
ATOM      4  C   UNL     1      33.150  15.628  -3.269  1.00  0.00     0.031 A
ATOM      5  C   UNL     1      32.827  16.497  -4.324  1.00  0.00     0.007 A
ATOM      6  C   UNL     1      32.256  16.025  -5.522  1.00  0.00    -0.032 A
ATOM      7  C   UNL     1      31.983  14.656  -5.669  1.00  0.00     0.033 A
ATOM      8  C   UNL     1      32.376  13.813  -4.631  1.00  0.00     0.066 A
ATOM      9  N   UNL     1      32.354  12.454  -4.499  1.00  0.00    -0.337 N
ATOM     10  H   UNL     1      31.960  11.806  -5.165  1.00  0.00     0.168 HD
ENDROOT
BRANCH   1  11
ATOM     11  C   UNL     1      33.268  10.639  -2.831  1.00  0.00     0.151 A
ATOM     12  C   UNL     1      32.486   9.433  -2.832  1.00  0.00     0.092 A
ATOM     13  C   UNL     1      33.374   8.459  -2.418  1.00  0.00     0.132 A
ATOM     14  N   UNL     1      34.555   9.084  -2.171  1.00  0.00    -0.283 N
ATOM     15  N   UNL     1      34.530  10.385  -2.439  1.00  0.00    -0.170 NA
ATOM     16  H   UNL     1      35.427   8.681  -1.842  1.00  0.00     0.189 HD
BRANCH  12  17
ATOM     17  N   UNL     1      31.210   9.054  -3.219  1.00  0.00    -0.304 N
ATOM     18  O   UNL     1      30.886  10.170  -5.208  1.00  0.00    -0.248 OA
ATOM     19  C   UNL     1      30.577   9.295  -4.409  1.00  0.00     0.319 C
ATOM     20  N   UNL     1      29.520   8.433  -4.606  1.00  0.00    -0.332 N
ATOM     21  H   UNL     1      30.622   8.686  -2.486  1.00  0.00     0.172 HD
ATOM     22  H   UNL     1      29.451   7.620  -4.009  1.00  0.00     0.165 HD
BRANCH  20  23
ATOM     23  C   UNL     1      28.591   8.534  -5.703  1.00  0.00     0.042 C
ATOM     24  C   UNL     1      27.955   9.884  -5.968  1.00  0.00     0.031 C
ATOM     25  C   UNL     1      27.136   8.789  -5.357  1.00  0.00     0.031 C
BRANCH  23  26
ATOM     26  C   UNL     1      28.863   7.655  -6.920  1.00  0.00     0.028 C
BRANCH  26  27
ATOM     27  C   UNL     1      29.308   6.234  -6.554  1.00  0.00     0.002 C
ATOM     28  G   UNL     1      29.086   5.215  -7.680  1.00  0.00     0.000 C
ENDBRANCH  26  27
ENDBRANCH  23  26
ENDBRANCH  20  23
ENDBRANCH  12  17
ENDBRANCH   1  11
BRANCH   6  29
ATOM     29  C   UNL     1      31.968  16.989  -6.656  1.00  0.00     0.120 C
BRANCH  29  30
ATOM     30  N   UNL     1      30.580  17.484  -6.620  1.00  0.00    -0.292 NA
ATOM     31  C   UNL     1      30.540  18.927  -6.321  1.00  0.00     0.113 C
ATOM     32  C   UNL     1      29.694  16.705  -5.711  1.00  0.00     0.083 C
ATOM     33  C   UNL     1      29.114  19.404  -6.007  1.00  0.00     0.175 C
ATOM     34  C   UNL     1      29.214  17.553  -4.504  1.00  0.00     0.179 C
ATOM     35  O   UNL     1      28.515  18.740  -4.885  1.00  0.00    -0.378 OA
BRANCH  32  36
ATOM     36  C   UNL     1      28.522  16.131  -6.550  1.00  0.00     0.021 C
BRANCH  36  37
ATOM     37  C   UNL     1      28.454  14.599  -6.512  1.00  0.00     0.002 C
BRANCH  37  38
ATOM     38  C   UNL     1      27.471  14.051  -5.472  1.00  0.00     0.000 C
ATOM     39  G   UNL     1      26.434  15.047  -4.933  1.00  0.00     0.000 C
ENDBRANCH  37  38
ENDBRANCH  36  37
ENDBRANCH  32  36
ENDBRANCH  29  30
ENDBRANCH   6  29
TORSDOF 0
ENDMDL
MODEL 9
REMARK VINA RESULT:      -7.4      3.385      6.651
REMARK SMILES O=C1Nc2c[nH]nc2-c2nc3ccc(cc3[nH]2)CN2CCOC[C@H]2CCCCCC2(CC2)N1
REMARK SMILES IDX 9 1 10 2 11 3 12 4 13 5 14 6 15 7 16 8 17 9 8 11 4 12 5 13
REMARK SMILES IDX 6 14 7 15 3 17 1 18 2 19 33 20 30 23 31 24 32 25 29 26 28 27
REMARK SMILES IDX 18 29 19 30 20 31 24 32 21 33 23 34 22 35 25 36 26 37 27 38
REMARK H PARENT 17 10 6 16 3 21 33 22
REMARK Flexibility Score:   58.900
ROOT
ATOM      1  C   UNL     1      30.738   8.278  -4.327  1.00  0.00     0.161 A
ATOM      2  N   UNL     1      31.688   8.289  -3.404  1.00  0.00    -0.227 NA
ATOM      3  C   UNL     1      32.170   9.573  -3.379  1.00  0.00     0.089 A
ATOM      4  C   UNL     1      33.250  10.123  -2.677  1.00  0.00     0.031 A
ATOM      5  C   UNL     1      33.563  11.477  -2.885  1.00  0.00     0.007 A
ATOM      6  C   UNL     1      32.795  12.291  -3.739  1.00  0.00    -0.032 A
ATOM      7  C   UNL     1      31.675  11.751  -4.392  1.00  0.00     0.033 A
ATOM      8  C   UNL     1      31.430  10.391  -4.217  1.00  0.00     0.066 A
ATOM      9  N   UNL     1      30.511   9.549  -4.773  1.00  0.00    -0.337 N
ATOM     10  H   UNL     1      29.769   9.821  -5.402  1.00  0.00     0.168 HD
ENDROOT
BRANCH   1  11
ATOM     11  C   UNL     1      30.020   6.967  -4.847  1.00  0.00     0.151 A
ATOM     12  C   UNL     1      29.289   6.695  -6.054  1.00  0.00     0.092 A
ATOM     13  C   UNL     1      29.029   5.340  -5.989  1.00  0.00     0.132 A
ATOM     14  N   UNL     1      29.548   4.896  -4.815  1.00  0.00    -0.283 N
ATOM     15  N   UNL     1      30.175   5.843  -4.123  1.00  0.00    -0.170 NA
ATOM     16  H   UNL     1      29.534   3.956  -4.432  1.00  0.00     0.189 HD
BRANCH  12  17
ATOM     17  N   UNL     1      28.922   7.393  -7.194  1.00  0.00    -0.304 N
ATOM     18  O   UNL     1      26.726   7.970  -6.801  1.00  0.00    -0.248 OA
ATOM     19  C   UNL     1      27.773   8.102  -7.422  1.00  0.00     0.319 C
ATOM     20  N   UNL     1      27.925   8.995  -8.461  1.00  0.00    -0.332 N
ATOM     21  H   UNL     1      29.499   7.238  -8.007  1.00  0.00     0.172 HD
ATOM     22  H   UNL     1      28.861   9.190  -8.787  1.00  0.00     0.165 HD
BRANCH  20  23
ATOM     23  C   UNL     1      26.849   9.781  -9.012  1.00  0.00     0.042 C
ATOM     24  C   UNL     1      27.204  11.091  -9.685  1.00  0.00     0.031 C
ATOM     25  C   UNL     1      26.545  11.107  -8.340  1.00  0.00     0.031 C
BRANCH  23  26
ATOM     26  C   UNL     1      25.661   9.015  -9.587  1.00  0.00     0.028 C
BRANCH  26  27
ATOM     27  C   UNL     1      26.068   7.933 -10.595  1.00  0.00     0.002 C
ATOM     28  G   UNL     1      26.137   8.441 -12.042  1.00  0.00     0.000 C
ENDBRANCH  26  27
ENDBRANCH  23  26
ENDBRANCH  20  23
ENDBRANCH  12  17
ENDBRANCH   1  11
BRANCH   6  29
ATOM     29  C   UNL     1      33.197  13.734  -3.975  1.00  0.00     0.120 C
BRANCH  29  30
ATOM     30  N   UNL     1      32.060  14.555  -4.429  1.00  0.00    -0.292 NA
ATOM     31  C   UNL     1      32.277  15.045  -5.803  1.00  0.00     0.113 C
ATOM     32  C   UNL     1      31.713  15.662  -3.494  1.00  0.00     0.083 C
ATOM     33  C   UNL     1      31.250  16.118  -6.194  1.00  0.00     0.175 C
ATOM     34  C   UNL     1      31.978  17.055  -4.123  1.00  0.00     0.179 C
ATOM     35  O   UNL     1      31.265  17.273  -5.343  1.00  0.00    -0.378 OA
BRANCH  32  36
ATOM     36  C   UNL     1      30.241  15.472  -3.044  1.00  0.00     0.021 C
BRANCH  36  37
ATOM     37  C   UNL     1      29.630  14.154  -3.538  1.00  0.00     0.002 C
BRANCH  37  38
ATOM     38  C   UNL     1      28.511  14.342  -4.568  1.00  0.00     0.000 C
ATOM     39  G   UNL     1      28.443  13.296  -5.689  1.00  0.00     0.000 C
ENDBRANCH  37  38
ENDBRANCH  36  37
ENDBRANCH  32  36
ENDBRANCH  29  30
ENDBRANCH   6  29
TORSDOF 0
ENDMDL
