MODEL 1
REMARK VINA RESULT:      -8.3      0.000      0.000
REMARK SMILES O=C1Nc2c[nH]nc2-c2nc3ccc(cc3[nH]2)CN2CCOC[C@@H]2CCNCCC2(CC2)N1
REMARK SMILES IDX 18 1 14 2 9 3 10 4 17 5 11 6 16 7 12 8 15 9 13 10 8 12 4 13
REMARK SMILES IDX 5 14 6 15 7 16 3 18 1 19 2 20 33 21 30 24 31 25 32 26 29 27
REMARK SMILES IDX 19 29 20 30 24 31 21 32 23 33 22 34 25 35 26 36 27 37 28 39
REMARK H PARENT 17 11 6 17 3 22 33 23 27 38
REMARK Flexibility Score:  107.900
ROOT
ATOM      1  C   UNL     1      31.591  11.804  -5.127  1.00  0.00     0.120 C
ENDROOT
BRANCH   1   2
ATOM      2  C   UNL     1      32.041  13.155  -4.604  1.00  0.00    -0.032 A
ATOM      3  C   UNL     1      31.976  17.615  -4.804  1.00  0.00     0.161 A
ATOM      4  N   UNL     1      31.805  17.121  -3.592  1.00  0.00    -0.227 NA
ATOM      5  N   UNL     1      32.542  16.696  -5.649  1.00  0.00    -0.337 N
ATOM      6  C   UNL     1      32.070  15.784  -3.722  1.00  0.00     0.089 A
ATOM      7  C   UNL     1      32.388  15.473  -5.039  1.00  0.00     0.066 A
ATOM      8  C   UNL     1      31.944  14.762  -2.772  1.00  0.00     0.031 A
ATOM      9  C   UNL     1      32.390  14.166  -5.525  1.00  0.00     0.033 A
ATOM     10  C   UNL     1      31.928  13.442  -3.233  1.00  0.00     0.007 A
ATOM     11  H   UNL     1      32.680  16.856  -6.636  1.00  0.00     0.168 HD
BRANCH   3  12
ATOM     12  C   UNL     1      31.388  18.972  -5.291  1.00  0.00     0.151 A
ATOM     13  C   UNL     1      30.007  19.277  -5.179  1.00  0.00     0.092 A
ATOM     14  C   UNL     1      29.871  20.480  -5.822  1.00  0.00     0.132 A
ATOM     15  N   UNL     1      31.115  20.805  -6.283  1.00  0.00    -0.283 N
ATOM     16  N   UNL     1      32.049  19.857  -6.046  1.00  0.00    -0.170 NA
ATOM     17  H   UNL     1      31.385  21.627  -6.812  1.00  0.00     0.189 HD
BRANCH  13  18
ATOM     18  N   UNL     1      29.054  18.407  -4.685  1.00  0.00    -0.304 N
ATOM     19  O   UNL     1      28.431  17.313  -6.633  1.00  0.00    -0.248 OA
ATOM     20  C   UNL     1      28.467  17.392  -5.410  1.00  0.00     0.319 C
ATOM     21  N   UNL     1      28.021  16.385  -4.567  1.00  0.00    -0.332 N
ATOM     22  H   UNL     1      28.986  18.381  -3.672  1.00  0.00     0.172 HD
ATOM     23  H   UNL     1      28.178  16.480  -3.571  1.00  0.00     0.165 HD
BRANCH  21  24
ATOM     24  C   UNL     1      27.691  15.060  -5.033  1.00  0.00     0.043 C
ATOM     25  C   UNL     1      28.736  14.307  -5.832  1.00  0.00     0.031 C
ATOM     26  C   UNL     1      28.419  13.871  -4.435  1.00  0.00     0.031 C
BRANCH  24  27
ATOM     27  C   UNL     1      26.221  14.870  -5.405  1.00  0.00     0.044 C
ATOM     28  G   UNL     1      25.946  14.725  -6.914  1.00  0.00     0.000 C
ENDBRANCH  24  27
ENDBRANCH  21  24
ENDBRANCH  13  18
ENDBRANCH   3  12
ENDBRANCH   1   2
BRANCH   1  29
ATOM     29  N   UNL     1      31.144  10.897  -4.029  1.00  0.00    -0.292 NA
ATOM     30  C   UNL     1      29.783  10.392  -4.311  1.00  0.00     0.113 C
ATOM     31  C   UNL     1      32.093   9.746  -3.801  1.00  0.00     0.084 C
ATOM     32  C   UNL     1      29.778   9.132  -5.190  1.00  0.00     0.175 C
ATOM     33  C   UNL     1      31.358   8.406  -3.539  1.00  0.00     0.179 C
ATOM     34  O   UNL     1      30.497   8.028  -4.622  1.00  0.00    -0.378 OA
BRANCH  31  35
ATOM     35  C   UNL     1      33.150  10.100  -2.708  1.00  0.00     0.037 C
BRANCH  35  36
ATOM     36  C   UNL     1      33.614   8.981  -1.756  1.00  0.00     0.082 C
BRANCH  36  37
ATOM     37  N   UNL     1      34.923   9.342  -1.178  1.00  0.00    -0.317 NA
ATOM     38  H   UNL     1      35.588   8.584  -1.350  1.00  0.00     0.122 HD
BRANCH  37  39
ATOM     39  C   UNL     1      35.435  10.591  -1.763  1.00  0.00     0.083 C
ATOM     40  G   UNL     1      36.103  11.536  -0.745  1.00  0.00     0.000 C
ENDBRANCH  37  39
ENDBRANCH  36  37
ENDBRANCH  35  36
ENDBRANCH  31  35
ENDBRANCH   1  29
TORSDOF 0
ENDMDL
MODEL 2
REMARK VINA RESULT:      -7.7      2.674      4.424
REMARK SMILES O=C1Nc2c[nH]nc2-c2nc3ccc(cc3[nH]2)CN2CCOC[C@@H]2CCNCCC2(CC2)N1
REMARK SMILES IDX 18 1 14 2 9 3 10 4 17 5 11 6 16 7 12 8 15 9 13 10 8 12 4 13
REMARK SMILES IDX 5 14 6 15 7 16 3 18 1 19 2 20 33 21 30 24 31 25 32 26 29 27
REMARK SMILES IDX 19 29 20 30 24 31 21 32 23 33 22 34 25 35 26 36 27 37 28 39
REMARK H PARENT 17 11 6 17 3 22 33 23 27 38
REMARK Flexibility Score:  107.900
ROOT
ATOM      1  C   UNL     1      33.357  13.208  -2.246  1.00  0.00     0.120 C
ENDROOT
BRANCH   1   2
ATOM      2  C   UNL     1      32.487  13.967  -3.229  1.00  0.00    -0.032 A
ATOM      3  C   UNL     1      30.984  17.819  -4.915  1.00  0.00     0.161 A
ATOM      4  N   UNL     1      31.369  16.941  -5.822  1.00  0.00    -0.227 NA
ATOM      5  N   UNL     1      30.737  17.222  -3.706  1.00  0.00    -0.337 N
ATOM      6  C   UNL     1      31.582  15.786  -5.118  1.00  0.00     0.089 A
ATOM      7  C   UNL     1      31.335  15.984  -3.764  1.00  0.00     0.066 A
ATOM      8  C   UNL     1      32.098  14.562  -5.562  1.00  0.00     0.031 A
ATOM      9  C   UNL     1      31.767  15.095  -2.781  1.00  0.00     0.033 A
ATOM     10  C   UNL     1      32.553  13.657  -4.598  1.00  0.00     0.007 A
ATOM     11  H   UNL     1      30.509  17.735  -2.867  1.00  0.00     0.168 HD
BRANCH   3  12
ATOM     12  C   UNL     1      31.040  19.363  -5.108  1.00  0.00     0.151 A
ATOM     13  C   UNL     1      30.190  20.039  -6.020  1.00  0.00     0.092 A
ATOM     14  C   UNL     1      30.627  21.338  -5.994  1.00  0.00     0.132 A
ATOM     15  N   UNL     1      31.681  21.365  -5.125  1.00  0.00    -0.283 N
ATOM     16  N   UNL     1      32.011  20.151  -4.632  1.00  0.00    -0.170 NA
ATOM     17  H   UNL     1      32.252  22.163  -4.868  1.00  0.00     0.189 HD
BRANCH  13  18
ATOM     18  N   UNL     1      29.279  19.411  -6.848  1.00  0.00    -0.304 N
ATOM     19  O   UNL     1      27.332  20.527  -6.257  1.00  0.00    -0.248 OA
ATOM     20  C   UNL     1      27.971  19.810  -7.020  1.00  0.00     0.319 C
ATOM     21  N   UNL     1      27.493  19.394  -8.254  1.00  0.00    -0.332 N
ATOM     22  H   UNL     1      29.690  18.783  -7.533  1.00  0.00     0.172 HD
ATOM     23  H   UNL     1      28.116  18.889  -8.872  1.00  0.00     0.165 HD
BRANCH  21  24
ATOM     24  C   UNL     1      26.307  19.946  -8.864  1.00  0.00     0.043 C
ATOM     25  C   UNL     1      26.276  21.438  -9.133  1.00  0.00     0.031 C
ATOM     26  C   UNL     1      26.394  20.482 -10.280  1.00  0.00     0.031 C
BRANCH  24  27
ATOM     27  C   UNL     1      25.006  19.260  -8.450  1.00  0.00     0.044 C
ATOM     28  G   UNL     1      24.179  20.017  -7.394  1.00  0.00     0.000 C
ENDBRANCH  24  27
ENDBRANCH  21  24
ENDBRANCH  13  18
ENDBRANCH   3  12
ENDBRANCH   1   2
BRANCH   1  29
ATOM     29  N   UNL     1      34.005  12.019  -2.871  1.00  0.00    -0.292 NA
ATOM     30  C   UNL     1      35.449  12.001  -2.549  1.00  0.00     0.113 C
ATOM     31  C   UNL     1      33.361  10.718  -2.459  1.00  0.00     0.084 C
ATOM     32  C   UNL     1      35.758  11.314  -1.210  1.00  0.00     0.175 C
ATOM     33  C   UNL     1      34.397   9.597  -2.181  1.00  0.00     0.179 C
ATOM     34  O   UNL     1      35.325   9.948  -1.146  1.00  0.00    -0.378 OA
BRANCH  31  35
ATOM     35  C   UNL     1      32.248  10.299  -3.470  1.00  0.00     0.037 C
BRANCH  35  36
ATOM     36  C   UNL     1      31.397   9.057  -3.144  1.00  0.00     0.082 C
BRANCH  36  37
ATOM     37  N   UNL     1      30.946   8.429  -4.400  1.00  0.00    -0.317 NA
ATOM     38  H   UNL     1      30.448   7.563  -4.184  1.00  0.00     0.122 HD
BRANCH  37  39
ATOM     39  C   UNL     1      30.065   9.331  -5.158  1.00  0.00     0.083 C
ATOM     40  G   UNL     1      29.314   8.650  -6.319  1.00  0.00     0.000 C
ENDBRANCH  37  39
ENDBRANCH  36  37
ENDBRANCH  35  36
ENDBRANCH  31  35
ENDBRANCH   1  29
TORSDOF 0
ENDMDL
MODEL 3
REMARK VINA RESULT:      -7.6      1.888      4.968
REMARK SMILES O=C1Nc2c[nH]nc2-c2nc3ccc(cc3[nH]2)CN2CCOC[C@@H]2CCNCCC2(CC2)N1
REMARK SMILES IDX 18 1 14 2 9 3 10 4 17 5 11 6 16 7 12 8 15 9 13 10 8 12 4 13
REMARK SMILES IDX 5 14 6 15 7 16 3 18 1 19 2 20 33 21 30 24 31 25 32 26 29 27
REMARK SMILES IDX 19 29 20 30 24 31 21 32 23 33 22 34 25 35 26 36 27 37 28 39
REMARK H PARENT 17 11 6 17 3 22 33 23 27 38
REMARK Flexibility Score:  107.900
ROOT
ATOM      1  C   UNL     1      33.589  12.634  -2.246  1.00  0.00     0.120 C
ENDROOT
BRANCH   1   2
ATOM      2  C   UNL     1      33.147  13.608  -3.322  1.00  0.00    -0.032 A
ATOM      3  C   UNL     1      29.936  15.415  -5.842  1.00  0.00     0.161 A
ATOM      4  N   UNL     1      30.743  16.293  -5.277  1.00  0.00    -0.227 NA
ATOM      5  N   UNL     1      30.494  14.164  -5.877  1.00  0.00    -0.337 N
ATOM      6  C   UNL     1      31.754  15.540  -4.743  1.00  0.00     0.089 A
ATOM      7  C   UNL     1      31.537  14.187  -4.980  1.00  0.00     0.066 A
ATOM      8  C   UNL     1      32.830  15.945  -3.942  1.00  0.00     0.031 A
ATOM      9  C   UNL     1      32.216  13.183  -4.292  1.00  0.00     0.033 A
ATOM     10  C   UNL     1      33.521  14.960  -3.230  1.00  0.00     0.007 A
ATOM     11  H   UNL     1      30.003  13.343  -6.199  1.00  0.00     0.168 HD
BRANCH   3  12
ATOM     12  C   UNL     1      28.445  15.695  -6.199  1.00  0.00     0.151 A
ATOM     13  C   UNL     1      28.033  16.902  -6.817  1.00  0.00     0.092 A
ATOM     14  C   UNL     1      26.665  16.822  -6.845  1.00  0.00     0.132 A
ATOM     15  N   UNL     1      26.345  15.635  -6.248  1.00  0.00    -0.283 N
ATOM     16  N   UNL     1      27.413  14.962  -5.765  1.00  0.00    -0.170 NA
ATOM     17  H   UNL     1      25.420  15.252  -6.088  1.00  0.00     0.189 HD
BRANCH  13  18
ATOM     18  N   UNL     1      28.880  17.953  -7.118  1.00  0.00    -0.304 N
ATOM     19  O   UNL     1      28.724  19.193  -5.163  1.00  0.00    -0.248 OA
ATOM     20  C   UNL     1      29.283  18.917  -6.219  1.00  0.00     0.319 C
ATOM     21  N   UNL     1      30.500  19.463  -6.603  1.00  0.00    -0.332 N
ATOM     22  H   UNL     1      29.407  17.841  -7.979  1.00  0.00     0.172 HD
ATOM     23  H   UNL     1      30.949  19.109  -7.439  1.00  0.00     0.165 HD
BRANCH  21  24
ATOM     24  C   UNL     1      31.337  20.223  -5.706  1.00  0.00     0.043 C
ATOM     25  C   UNL     1      31.683  21.647  -6.094  1.00  0.00     0.031 C
ATOM     26  C   UNL     1      30.733  21.399  -4.962  1.00  0.00     0.031 C
BRANCH  24  27
ATOM     27  C   UNL     1      32.393  19.395  -4.976  1.00  0.00     0.044 C
ATOM     28  G   UNL     1      33.622  19.014  -5.824  1.00  0.00     0.000 C
ENDBRANCH  24  27
ENDBRANCH  21  24
ENDBRANCH  13  18
ENDBRANCH   3  12
ENDBRANCH   1   2
BRANCH   1  29
ATOM     29  N   UNL     1      34.141  11.373  -2.822  1.00  0.00    -0.292 NA
ATOM     30  C   UNL     1      35.480  11.100  -2.254  1.00  0.00     0.113 C
ATOM     31  C   UNL     1      33.231  10.188  -2.611  1.00  0.00     0.084 C
ATOM     32  C   UNL     1      35.424  10.327  -0.927  1.00  0.00     0.175 C
ATOM     33  C   UNL     1      34.004   8.899  -2.227  1.00  0.00     0.179 C
ATOM     34  O   UNL     1      34.772   9.053  -1.026  1.00  0.00    -0.378 OA
BRANCH  31  35
ATOM     35  C   UNL     1      32.269   9.998  -3.826  1.00  0.00     0.037 C
BRANCH  35  36
ATOM     36  C   UNL     1      30.885   9.372  -3.567  1.00  0.00     0.082 C
BRANCH  36  37
ATOM     37  N   UNL     1      29.842  10.399  -3.754  1.00  0.00    -0.317 NA
ATOM     38  H   UNL     1      30.286  11.309  -3.895  1.00  0.00     0.122 HD
BRANCH  37  39
ATOM     39  C   UNL     1      28.986  10.083  -4.908  1.00  0.00     0.083 C
ATOM     40  G   UNL     1      29.478   8.890  -5.750  1.00  0.00     0.000 C
ENDBRANCH  37  39
ENDBRANCH  36  37
ENDBRANCH  35  36
ENDBRANCH  31  35
ENDBRANCH   1  29
TORSDOF 0
ENDMDL
MODEL 4
REMARK VINA RESULT:      -7.5      1.915      4.873
REMARK SMILES O=C1Nc2c[nH]nc2-c2nc3ccc(cc3[nH]2)CN2CCOC[C@@H]2CCNCCC2(CC2)N1
REMARK SMILES IDX 18 1 14 2 9 3 10 4 17 5 11 6 16 7 12 8 15 9 13 10 8 12 4 13
REMARK SMILES IDX 5 14 6 15 7 16 3 18 1 19 2 20 33 21 30 24 31 25 32 26 29 27
REMARK SMILES IDX 19 29 20 30 24 31 21 32 23 33 22 34 25 35 26 36 27 37 28 39
REMARK H PARENT 17 11 6 17 3 22 33 23 27 38
REMARK Flexibility Score:  107.900
ROOT
ATOM      1  C   UNL     1      33.692  12.442  -2.476  1.00  0.00     0.120 C
ENDROOT
BRANCH   1   2
ATOM      2  C   UNL     1      33.171  13.455  -3.478  1.00  0.00    -0.032 A
ATOM      3  C   UNL     1      29.841  15.126  -5.937  1.00  0.00     0.161 A
ATOM      4  N   UNL     1      30.535  16.032  -5.273  1.00  0.00    -0.227 NA
ATOM      5  N   UNL     1      30.532  13.950  -6.060  1.00  0.00    -0.337 N
ATOM      6  C   UNL     1      31.610  15.346  -4.773  1.00  0.00     0.089 A
ATOM      7  C   UNL     1      31.546  14.004  -5.132  1.00  0.00     0.066 A
ATOM      8  C   UNL     1      32.617  15.791  -3.907  1.00  0.00     0.031 A
ATOM      9  C   UNL     1      32.314  13.020  -4.511  1.00  0.00     0.033 A
ATOM     10  C   UNL     1      33.394  14.825  -3.260  1.00  0.00     0.007 A
ATOM     11  H   UNL     1      30.140  13.112  -6.466  1.00  0.00     0.168 HD
BRANCH   3  12
ATOM     12  C   UNL     1      28.338  15.277  -6.316  1.00  0.00     0.151 A
ATOM     13  C   UNL     1      27.832  16.446  -6.940  1.00  0.00     0.092 A
ATOM     14  C   UNL     1      26.477  16.248  -6.989  1.00  0.00     0.132 A
ATOM     15  N   UNL     1      26.251  15.036  -6.398  1.00  0.00    -0.283 N
ATOM     16  N   UNL     1      27.366  14.457  -5.899  1.00  0.00    -0.170 NA
ATOM     17  H   UNL     1      25.360  14.574  -6.252  1.00  0.00     0.189 HD
BRANCH  13  18
ATOM     18  N   UNL     1      28.590  17.566  -7.227  1.00  0.00    -0.304 N
ATOM     19  O   UNL     1      28.301  18.783  -5.272  1.00  0.00    -0.248 OA
ATOM     20  C   UNL     1      28.896  18.559  -6.321  1.00  0.00     0.319 C
ATOM     21  N   UNL     1      30.066  19.208  -6.687  1.00  0.00    -0.332 N
ATOM     22  H   UNL     1      29.135  17.503  -8.081  1.00  0.00     0.172 HD
ATOM     23  H   UNL     1      30.555  18.897  -7.517  1.00  0.00     0.165 HD
BRANCH  21  24
ATOM     24  C   UNL     1      30.823  20.035  -5.778  1.00  0.00     0.043 C
ATOM     25  C   UNL     1      31.382  19.386  -4.526  1.00  0.00     0.031 C
ATOM     26  C   UNL     1      32.312  19.786  -5.630  1.00  0.00     0.031 C
BRANCH  24  27
ATOM     27  C   UNL     1      30.339  21.481  -5.688  1.00  0.00     0.044 C
ATOM     28  G   UNL     1      29.399  21.924  -6.825  1.00  0.00     0.000 C
ENDBRANCH  24  27
ENDBRANCH  21  24
ENDBRANCH  13  18
ENDBRANCH   3  12
ENDBRANCH   1   2
BRANCH   1  29
ATOM     29  N   UNL     1      33.817  11.078  -3.068  1.00  0.00    -0.292 NA
ATOM     30  C   UNL     1      35.132  10.495  -2.722  1.00  0.00     0.113 C
ATOM     31  C   UNL     1      32.705  10.152  -2.641  1.00  0.00     0.084 C
ATOM     32  C   UNL     1      35.133   9.774  -1.366  1.00  0.00     0.175 C
ATOM     33  C   UNL     1      33.207   8.718  -2.325  1.00  0.00     0.179 C
ATOM     34  O   UNL     1      34.191   8.695  -1.282  1.00  0.00    -0.378 OA
BRANCH  31  35
ATOM     35  C   UNL     1      31.524  10.187  -3.661  1.00  0.00     0.037 C
BRANCH  35  36
ATOM     36  C   UNL     1      31.060   8.856  -4.282  1.00  0.00     0.082 C
BRANCH  36  37
ATOM     37  N   UNL     1      29.720   9.034  -4.873  1.00  0.00    -0.317 NA
ATOM     38  H   UNL     1      29.683   9.931  -5.363  1.00  0.00     0.122 HD
BRANCH  37  39
ATOM     39  C   UNL     1      29.403   7.946  -5.811  1.00  0.00     0.083 C
ATOM     40  G   UNL     1      29.694   6.536  -5.262  1.00  0.00     0.000 C
ENDBRANCH  37  39
ENDBRANCH  36  37
ENDBRANCH  35  36
ENDBRANCH  31  35
ENDBRANCH   1  29
TORSDOF 0
ENDMDL
MODEL 5
REMARK VINA RESULT:      -7.5      1.230      1.641
REMARK SMILES O=C1Nc2c[nH]nc2-c2nc3ccc(cc3[nH]2)CN2CCOC[C@@H]2CCNCCC2(CC2)N1
REMARK SMILES IDX 18 1 14 2 9 3 10 4 17 5 11 6 16 7 12 8 15 9 13 10 8 12 4 13
REMARK SMILES IDX 5 14 6 15 7 16 3 18 1 19 2 20 33 21 30 24 31 25 32 26 29 27
REMARK SMILES IDX 19 29 20 30 24 31 21 32 23 33 22 34 25 35 26 36 27 37 28 39
REMARK H PARENT 17 11 6 17 3 22 33 23 27 38
REMARK Flexibility Score:  107.900
ROOT
ATOM      1  C   UNL     1      32.369  11.701  -4.608  1.00  0.00     0.120 C
ENDROOT
BRANCH   1   2
ATOM      2  C   UNL     1      32.504  13.113  -4.071  1.00  0.00    -0.032 A
ATOM      3  C   UNL     1      31.666  17.487  -4.393  1.00  0.00     0.161 A
ATOM      4  N   UNL     1      31.440  16.976  -3.196  1.00  0.00    -0.227 NA
ATOM      5  N   UNL     1      32.485  16.682  -5.140  1.00  0.00    -0.337 N
ATOM      6  C   UNL     1      31.954  15.708  -3.259  1.00  0.00     0.089 A
ATOM      7  C   UNL     1      32.480  15.454  -4.521  1.00  0.00     0.066 A
ATOM      8  C   UNL     1      31.898  14.684  -2.305  1.00  0.00     0.031 A
ATOM      9  C   UNL     1      32.775  14.167  -4.969  1.00  0.00     0.033 A
ATOM     10  C   UNL     1      32.176  13.380  -2.730  1.00  0.00     0.007 A
ATOM     11  H   UNL     1      32.711  16.861  -6.108  1.00  0.00     0.168 HD
BRANCH   3  12
ATOM     12  C   UNL     1      30.907  18.714  -4.980  1.00  0.00     0.151 A
ATOM     13  C   UNL     1      30.065  18.604  -6.116  1.00  0.00     0.092 A
ATOM     14  C   UNL     1      29.695  19.895  -6.392  1.00  0.00     0.132 A
ATOM     15  N   UNL     1      30.325  20.675  -5.463  1.00  0.00    -0.283 N
ATOM     16  N   UNL     1      31.143  19.986  -4.637  1.00  0.00    -0.170 NA
ATOM     17  H   UNL     1      30.285  21.684  -5.372  1.00  0.00     0.189 HD
BRANCH  13  18
ATOM     18  N   UNL     1      29.872  17.438  -6.834  1.00  0.00    -0.304 N
ATOM     19  O   UNL     1      28.358  16.343  -5.458  1.00  0.00    -0.248 OA
ATOM     20  C   UNL     1      28.922  16.484  -6.538  1.00  0.00     0.319 C
ATOM     21  N   UNL     1      28.583  15.766  -7.675  1.00  0.00    -0.332 N
ATOM     22  H   UNL     1      30.296  17.432  -7.757  1.00  0.00     0.172 HD
ATOM     23  H   UNL     1      29.023  16.010  -8.553  1.00  0.00     0.165 HD
BRANCH  21  24
ATOM     24  C   UNL     1      27.390  14.957  -7.766  1.00  0.00     0.043 C
ATOM     25  C   UNL     1      26.053  15.669  -7.833  1.00  0.00     0.031 C
ATOM     26  C   UNL     1      26.587  14.981  -9.052  1.00  0.00     0.031 C
BRANCH  24  27
ATOM     27  C   UNL     1      27.467  13.633  -7.009  1.00  0.00     0.044 C
ATOM     28  G   UNL     1      26.481  13.497  -5.833  1.00  0.00     0.000 C
ENDBRANCH  24  27
ENDBRANCH  21  24
ENDBRANCH  13  18
ENDBRANCH   3  12
ENDBRANCH   1   2
BRANCH   1  29
ATOM     29  N   UNL     1      31.571  10.828  -3.698  1.00  0.00    -0.292 NA
ATOM     30  C   UNL     1      30.195  10.677  -4.220  1.00  0.00     0.113 C
ATOM     31  C   UNL     1      32.202   9.474  -3.487  1.00  0.00     0.084 C
ATOM     32  C   UNL     1      30.059   9.535  -5.239  1.00  0.00     0.175 C
ATOM     33  C   UNL     1      31.164   8.321  -3.492  1.00  0.00     0.179 C
ATOM     34  O   UNL     1      30.424   8.249  -4.719  1.00  0.00    -0.378 OA
BRANCH  31  35
ATOM     35  C   UNL     1      33.123   9.476  -2.227  1.00  0.00     0.037 C
BRANCH  35  36
ATOM     36  C   UNL     1      34.582   9.943  -2.393  1.00  0.00     0.082 C
BRANCH  36  37
ATOM     37  N   UNL     1      35.272   9.862  -1.092  1.00  0.00    -0.317 NA
ATOM     38  H   UNL     1      35.915   9.066  -1.099  1.00  0.00     0.122 HD
BRANCH  37  39
ATOM     39  C   UNL     1      36.018  11.098  -0.807  1.00  0.00     0.083 C
ATOM     40  G   UNL     1      35.575  12.309  -1.649  1.00  0.00     0.000 C
ENDBRANCH  37  39
ENDBRANCH  36  37
ENDBRANCH  35  36
ENDBRANCH  31  35
ENDBRANCH   1  29
TORSDOF 0
ENDMDL
MODEL 6
REMARK VINA RESULT:      -7.4      0.592      1.268
REMARK SMILES O=C1Nc2c[nH]nc2-c2nc3ccc(cc3[nH]2)CN2CCOC[C@@H]2CCNCCC2(CC2)N1
REMARK SMILES IDX 18 1 14 2 9 3 10 4 17 5 11 6 16 7 12 8 15 9 13 10 8 12 4 13
REMARK SMILES IDX 5 14 6 15 7 16 3 18 1 19 2 20 33 21 30 24 31 25 32 26 29 27
REMARK SMILES IDX 19 29 20 30 24 31 21 32 23 33 22 34 25 35 26 36 27 37 28 39
REMARK H PARENT 17 11 6 17 3 22 33 23 27 38
REMARK Flexibility Score:  107.900
ROOT
ATOM      1  C   UNL     1      31.880  11.696  -5.055  1.00  0.00     0.120 C
ENDROOT
BRANCH   1   2
ATOM      2  C   UNL     1      32.218  13.062  -4.490  1.00  0.00    -0.032 A
ATOM      3  C   UNL     1      31.983  17.516  -4.695  1.00  0.00     0.161 A
ATOM      4  N   UNL     1      31.712  17.010  -3.505  1.00  0.00    -0.227 NA
ATOM      5  N   UNL     1      32.668  16.626  -5.478  1.00  0.00    -0.337 N
ATOM      6  C   UNL     1      32.046  15.686  -3.608  1.00  0.00     0.089 A
ATOM      7  C   UNL     1      32.507  15.394  -4.887  1.00  0.00     0.066 A
ATOM      8  C   UNL     1      31.869  14.656  -2.677  1.00  0.00     0.031 A
ATOM      9  C   UNL     1      32.613  14.091  -5.371  1.00  0.00     0.033 A
ATOM     10  C   UNL     1      31.956  13.337  -3.137  1.00  0.00     0.007 A
ATOM     11  H   UNL     1      32.897  16.796  -6.447  1.00  0.00     0.168 HD
BRANCH   3  12
ATOM     12  C   UNL     1      31.388  18.849  -5.237  1.00  0.00     0.151 A
ATOM     13  C   UNL     1      30.008  19.158  -5.127  1.00  0.00     0.092 A
ATOM     14  C   UNL     1      29.864  20.330  -5.823  1.00  0.00     0.132 A
ATOM     15  N   UNL     1      31.104  20.635  -6.309  1.00  0.00    -0.283 N
ATOM     16  N   UNL     1      32.041  19.700  -6.038  1.00  0.00    -0.170 NA
ATOM     17  H   UNL     1      31.368  21.432  -6.879  1.00  0.00     0.189 HD
BRANCH  13  18
ATOM     18  N   UNL     1      29.060  18.310  -4.584  1.00  0.00    -0.304 N
ATOM     19  O   UNL     1      27.981  17.596  -6.510  1.00  0.00    -0.248 OA
ATOM     20  C   UNL     1      28.240  17.480  -5.317  1.00  0.00     0.319 C
ATOM     21  N   UNL     1      27.834  16.397  -4.551  1.00  0.00    -0.332 N
ATOM     22  H   UNL     1      29.169  18.133  -3.590  1.00  0.00     0.172 HD
ATOM     23  H   UNL     1      28.172  16.321  -3.600  1.00  0.00     0.165 HD
BRANCH  21  24
ATOM     24  C   UNL     1      27.273  15.197  -5.123  1.00  0.00     0.043 C
ATOM     25  C   UNL     1      25.845  14.837  -4.762  1.00  0.00     0.031 C
ATOM     26  C   UNL     1      26.158  15.324  -6.144  1.00  0.00     0.031 C
BRANCH  24  27
ATOM     27  C   UNL     1      28.278  14.062  -5.317  1.00  0.00     0.044 C
ATOM     28  G   UNL     1      28.725  13.361  -4.020  1.00  0.00     0.000 C
ENDBRANCH  24  27
ENDBRANCH  21  24
ENDBRANCH  13  18
ENDBRANCH   3  12
ENDBRANCH   1   2
BRANCH   1  29
ATOM     29  N   UNL     1      31.276  10.797  -4.029  1.00  0.00    -0.292 NA
ATOM     30  C   UNL     1      29.953  10.321  -4.487  1.00  0.00     0.113 C
ATOM     31  C   UNL     1      32.163   9.625  -3.685  1.00  0.00     0.084 C
ATOM     32  C   UNL     1      30.036   9.063  -5.365  1.00  0.00     0.175 C
ATOM     33  C   UNL     1      31.372   8.300  -3.527  1.00  0.00     0.179 C
ATOM     34  O   UNL     1      30.652   7.942  -4.714  1.00  0.00    -0.378 OA
BRANCH  31  35
ATOM     35  C   UNL     1      33.077   9.954  -2.463  1.00  0.00     0.037 C
BRANCH  35  36
ATOM     36  C   UNL     1      34.516  10.430  -2.737  1.00  0.00     0.082 C
BRANCH  36  37
ATOM     37  N   UNL     1      35.263  10.484  -1.466  1.00  0.00    -0.317 NA
ATOM     38  H   UNL     1      36.014   9.789  -1.486  1.00  0.00     0.122 HD
BRANCH  37  39
ATOM     39  C   UNL     1      35.834  11.821  -1.240  1.00  0.00     0.083 C
ATOM     40  G   UNL     1      35.380  12.880  -2.262  1.00  0.00     0.000 C
ENDBRANCH  37  39
ENDBRANCH  36  37
ENDBRANCH  35  36
ENDBRANCH  31  35
ENDBRANCH   1  29
TORSDOF 0
ENDMDL
MODEL 7
REMARK VINA RESULT:      -7.4      2.395      4.068
REMARK SMILES O=C1Nc2c[nH]nc2-c2nc3ccc(cc3[nH]2)CN2CCOC[C@@H]2CCNCCC2(CC2)N1
REMARK SMILES IDX 18 1 14 2 9 3 10 4 17 5 11 6 16 7 12 8 15 9 13 10 8 12 4 13
REMARK SMILES IDX 5 14 6 15 7 16 3 18 1 19 2 20 33 21 30 24 31 25 32 26 29 27
REMARK SMILES IDX 19 29 20 30 24 31 21 32 23 33 22 34 25 35 26 36 27 37 28 39
REMARK H PARENT 17 11 6 17 3 22 33 23 27 38
REMARK Flexibility Score:  107.900
ROOT
ATOM      1  C   UNL     1      33.196  13.417  -2.382  1.00  0.00     0.120 C
ENDROOT
BRANCH   1   2
ATOM      2  C   UNL     1      32.322  14.159  -3.376  1.00  0.00    -0.032 A
ATOM      3  C   UNL     1      30.589  17.965  -4.938  1.00  0.00     0.161 A
ATOM      4  N   UNL     1      31.103  17.179  -5.866  1.00  0.00    -0.227 NA
ATOM      5  N   UNL     1      30.325  17.278  -3.783  1.00  0.00    -0.337 N
ATOM      6  C   UNL     1      31.375  16.006  -5.215  1.00  0.00     0.089 A
ATOM      7  C   UNL     1      31.031  16.100  -3.871  1.00  0.00     0.066 A
ATOM      8  C   UNL     1      32.022  14.860  -5.693  1.00  0.00     0.031 A
ATOM      9  C   UNL     1      31.482  15.193  -2.913  1.00  0.00     0.033 A
ATOM     10  C   UNL     1      32.497  13.939  -4.753  1.00  0.00     0.007 A
ATOM     11  H   UNL     1      30.003  17.717  -2.933  1.00  0.00     0.168 HD
BRANCH   3  12
ATOM     12  C   UNL     1      30.520  19.518  -5.042  1.00  0.00     0.151 A
ATOM     13  C   UNL     1      29.808  20.173  -6.079  1.00  0.00     0.092 A
ATOM     14  C   UNL     1      30.091  21.501  -5.900  1.00  0.00     0.132 A
ATOM     15  N   UNL     1      30.937  21.567  -4.829  1.00  0.00    -0.283 N
ATOM     16  N   UNL     1      31.286  20.358  -4.335  1.00  0.00    -0.170 NA
ATOM     17  H   UNL     1      31.356  22.395  -4.420  1.00  0.00     0.189 HD
BRANCH  13  18
ATOM     18  N   UNL     1      29.157  19.520  -7.109  1.00  0.00    -0.304 N
ATOM     19  O   UNL     1      27.296  18.710  -5.985  1.00  0.00    -0.248 OA
ATOM     20  C   UNL     1      27.888  18.988  -7.022  1.00  0.00     0.319 C
ATOM     21  N   UNL     1      27.301  18.922  -8.278  1.00  0.00    -0.332 N
ATOM     22  H   UNL     1      29.558  19.674  -8.030  1.00  0.00     0.172 HD
ATOM     23  H   UNL     1      27.821  19.265  -9.076  1.00  0.00     0.165 HD
BRANCH  21  24
ATOM     24  C   UNL     1      25.882  18.748  -8.472  1.00  0.00     0.043 C
ATOM     25  C   UNL     1      24.941  19.532  -7.578  1.00  0.00     0.031 C
ATOM     26  C   UNL     1      25.071  19.906  -9.023  1.00  0.00     0.031 C
BRANCH  24  27
ATOM     27  C   UNL     1      25.471  17.338  -8.893  1.00  0.00     0.044 C
ATOM     28  G   UNL     1      26.161  16.200  -8.118  1.00  0.00     0.000 C
ENDBRANCH  24  27
ENDBRANCH  21  24
ENDBRANCH  13  18
ENDBRANCH   3  12
ENDBRANCH   1   2
BRANCH   1  29
ATOM     29  N   UNL     1      33.938  12.290  -3.019  1.00  0.00    -0.292 NA
ATOM     30  C   UNL     1      35.348  12.295  -2.571  1.00  0.00     0.113 C
ATOM     31  C   UNL     1      33.307  10.947  -2.745  1.00  0.00     0.084 C
ATOM     32  C   UNL     1      35.564  11.534  -1.254  1.00  0.00     0.175 C
ATOM     33  C   UNL     1      34.354   9.842  -2.444  1.00  0.00     0.179 C
ATOM     34  O   UNL     1      35.176  10.154  -1.312  1.00  0.00    -0.378 OA
BRANCH  31  35
ATOM     35  C   UNL     1      32.301  10.561  -3.875  1.00  0.00     0.037 C
BRANCH  35  36
ATOM     36  C   UNL     1      31.178   9.562  -3.538  1.00  0.00     0.082 C
BRANCH  36  37
ATOM     37  N   UNL     1      29.884  10.270  -3.521  1.00  0.00    -0.317 NA
ATOM     38  H   UNL     1      29.926  11.033  -2.841  1.00  0.00     0.122 HD
BRANCH  37  39
ATOM     39  C   UNL     1      29.554  10.809  -4.849  1.00  0.00     0.083 C
ATOM     40  G   UNL     1      29.245  12.318  -4.858  1.00  0.00     0.000 C
ENDBRANCH  37  39
ENDBRANCH  36  37
ENDBRANCH  35  36
ENDBRANCH  31  35
ENDBRANCH   1  29
TORSDOF 0
ENDMDL
MODEL 8
REMARK VINA RESULT:      -7.4      2.219      4.903
REMARK SMILES O=C1Nc2c[nH]nc2-c2nc3ccc(cc3[nH]2)CN2CCOC[C@@H]2CCNCCC2(CC2)N1
REMARK SMILES IDX 18 1 14 2 9 3 10 4 17 5 11 6 16 7 12 8 15 9 13 10 8 12 4 13
REMARK SMILES IDX 5 14 6 15 7 16 3 18 1 19 2 20 33 21 30 24 31 25 32 26 29 27
REMARK SMILES IDX 19 29 20 30 24 31 21 32 23 33 22 34 25 35 26 36 27 37 28 39
REMARK H PARENT 17 11 6 17 3 22 33 23 27 38
REMARK Flexibility Score:  107.900
ROOT
ATOM      1  C   UNL     1      32.938  13.619  -2.489  1.00  0.00     0.120 C
ENDROOT
BRANCH   1   2
ATOM      2  C   UNL     1      31.764  13.499  -3.442  1.00  0.00    -0.032 A
ATOM      3  C   UNL     1      28.237  15.298  -5.505  1.00  0.00     0.161 A
ATOM      4  N   UNL     1      29.045  14.619  -6.299  1.00  0.00    -0.227 NA
ATOM      5  N   UNL     1      28.420  14.960  -4.190  1.00  0.00    -0.337 N
ATOM      6  C   UNL     1      29.915  13.989  -5.450  1.00  0.00     0.089 A
ATOM      7  C   UNL     1      29.631  14.311  -4.128  1.00  0.00     0.066 A
ATOM      8  C   UNL     1      31.044  13.217  -5.755  1.00  0.00     0.031 A
ATOM      9  C   UNL     1      30.529  14.080  -3.086  1.00  0.00     0.033 A
ATOM     10  C   UNL     1      31.968  12.981  -4.732  1.00  0.00     0.007 A
ATOM     11  H   UNL     1      27.953  15.425  -3.424  1.00  0.00     0.168 HD
BRANCH   3  12
ATOM     12  C   UNL     1      27.366  16.505  -5.963  1.00  0.00     0.151 A
ATOM     13  C   UNL     1      27.901  17.571  -6.731  1.00  0.00     0.092 A
ATOM     14  C   UNL     1      26.876  18.477  -6.817  1.00  0.00     0.132 A
ATOM     15  N   UNL     1      25.837  17.940  -6.110  1.00  0.00    -0.283 N
ATOM     16  N   UNL     1      26.138  16.770  -5.503  1.00  0.00    -0.170 NA
ATOM     17  H   UNL     1      24.919  18.343  -5.955  1.00  0.00     0.189 HD
BRANCH  13  18
ATOM     18  N   UNL     1      29.229  17.674  -7.102  1.00  0.00    -0.304 N
ATOM     19  O   UNL     1      30.093  18.806  -5.271  1.00  0.00    -0.248 OA
ATOM     20  C   UNL     1      30.239  18.130  -6.283  1.00  0.00     0.319 C
ATOM     21  N   UNL     1      31.462  17.612  -6.684  1.00  0.00    -0.332 N
ATOM     22  H   UNL     1      29.478  17.152  -7.937  1.00  0.00     0.172 HD
ATOM     23  H   UNL     1      31.486  16.978  -7.473  1.00  0.00     0.165 HD
BRANCH  21  24
ATOM     24  C   UNL     1      32.631  17.616  -5.838  1.00  0.00     0.043 C
ATOM     25  C   UNL     1      32.477  17.127  -4.411  1.00  0.00     0.031 C
ATOM     26  C   UNL     1      33.224  16.289  -5.403  1.00  0.00     0.031 C
BRANCH  24  27
ATOM     27  C   UNL     1      33.601  18.765  -6.108  1.00  0.00     0.044 C
ATOM     28  G   UNL     1      33.285  20.072  -5.358  1.00  0.00     0.000 C
ENDBRANCH  24  27
ENDBRANCH  21  24
ENDBRANCH  13  18
ENDBRANCH   3  12
ENDBRANCH   1   2
BRANCH   1  29
ATOM     29  N   UNL     1      34.052  12.693  -2.849  1.00  0.00    -0.292 NA
ATOM     30  C   UNL     1      35.354  13.315  -2.522  1.00  0.00     0.113 C
ATOM     31  C   UNL     1      33.931  11.347  -2.178  1.00  0.00     0.084 C
ATOM     32  C   UNL     1      35.786  13.075  -1.067  1.00  0.00     0.175 C
ATOM     33  C   UNL     1      35.293  10.807  -1.667  1.00  0.00     0.179 C
ATOM     34  O   UNL     1      35.916  11.688  -0.723  1.00  0.00    -0.378 OA
BRANCH  31  35
ATOM     35  C   UNL     1      33.163  10.336  -3.086  1.00  0.00     0.037 C
BRANCH  35  36
ATOM     36  C   UNL     1      32.959   8.900  -2.566  1.00  0.00     0.082 C
BRANCH  36  37
ATOM     37  N   UNL     1      31.522   8.567  -2.601  1.00  0.00    -0.317 NA
ATOM     38  H   UNL     1      30.975   9.418  -2.454  1.00  0.00     0.122 HD
BRANCH  37  39
ATOM     39  C   UNL     1      31.149   7.954  -3.886  1.00  0.00     0.083 C
ATOM     40  G   UNL     1      30.483   8.927  -4.877  1.00  0.00     0.000 C
ENDBRANCH  37  39
ENDBRANCH  36  37
ENDBRANCH  35  36
ENDBRANCH  31  35
ENDBRANCH   1  29
TORSDOF 0
ENDMDL
MODEL 9
REMARK VINA RESULT:      -7.3      1.952      3.875
REMARK SMILES O=C1Nc2c[nH]nc2-c2nc3ccc(cc3[nH]2)CN2CCOC[C@@H]2CCNCCC2(CC2)N1
REMARK SMILES IDX 18 1 14 2 9 3 10 4 17 5 11 6 16 7 12 8 15 9 13 10 8 12 4 13
REMARK SMILES IDX 5 14 6 15 7 16 3 18 1 19 2 20 33 21 30 24 31 25 32 26 29 27
REMARK SMILES IDX 19 29 20 30 24 31 21 32 23 33 22 34 25 35 26 36 27 37 28 39
REMARK H PARENT 17 11 6 17 3 22 33 23 27 38
REMARK Flexibility Score:  107.900
ROOT
ATOM      1  C   UNL     1      33.377  12.364  -2.581  1.00  0.00     0.120 C
ENDROOT
BRANCH   1   2
ATOM      2  C   UNL     1      32.673  13.366  -3.477  1.00  0.00    -0.032 A
ATOM      3  C   UNL     1      32.213  17.519  -5.049  1.00  0.00     0.161 A
ATOM      4  N   UNL     1      32.221  16.582  -5.979  1.00  0.00    -0.227 NA
ATOM      5  N   UNL     1      31.931  17.001  -3.813  1.00  0.00    -0.337 N
ATOM      6  C   UNL     1      32.154  15.404  -5.285  1.00  0.00     0.089 A
ATOM      7  C   UNL     1      32.123  15.643  -3.915  1.00  0.00     0.066 A
ATOM      8  C   UNL     1      32.232  14.090  -5.764  1.00  0.00     0.031 A
ATOM      9  C   UNL     1      32.374  14.648  -2.971  1.00  0.00     0.033 A
ATOM     10  C   UNL     1      32.497  13.073  -4.840  1.00  0.00     0.007 A
ATOM     11  H   UNL     1      31.957  17.544  -2.961  1.00  0.00     0.168 HD
BRANCH   3  12
ATOM     12  C   UNL     1      32.706  18.980  -5.270  1.00  0.00     0.151 A
ATOM     13  C   UNL     1      31.823  20.088  -5.217  1.00  0.00     0.092 A
ATOM     14  C   UNL     1      32.596  21.159  -5.584  1.00  0.00     0.132 A
ATOM     15  N   UNL     1      33.838  20.654  -5.848  1.00  0.00    -0.283 N
ATOM     16  N   UNL     1      33.912  19.308  -5.747  1.00  0.00    -0.170 NA
ATOM     17  H   UNL     1      34.661  21.161  -6.155  1.00  0.00     0.189 HD
BRANCH  13  18
ATOM     18  N   UNL     1      30.458  19.989  -5.016  1.00  0.00    -0.304 N
ATOM     19  O   UNL     1      29.710  19.951  -7.212  1.00  0.00    -0.248 OA
ATOM     20  C   UNL     1      29.533  19.765  -6.013  1.00  0.00     0.319 C
ATOM     21  N   UNL     1      28.393  19.169  -5.493  1.00  0.00    -0.332 N
ATOM     22  H   UNL     1      30.181  19.832  -4.051  1.00  0.00     0.172 HD
ATOM     23  H   UNL     1      28.363  18.956  -4.505  1.00  0.00     0.165 HD
BRANCH  21  24
ATOM     24  C   UNL     1      27.413  18.501  -6.316  1.00  0.00     0.043 C
ATOM     25  C   UNL     1      27.831  17.229  -7.028  1.00  0.00     0.031 C
ATOM     26  C   UNL     1      26.881  17.152  -5.871  1.00  0.00     0.031 C
BRANCH  24  27
ATOM     27  C   UNL     1      26.440  19.441  -7.027  1.00  0.00     0.044 C
ATOM     28  G   UNL     1      26.595  19.501  -8.558  1.00  0.00     0.000 C
ENDBRANCH  24  27
ENDBRANCH  21  24
ENDBRANCH  13  18
ENDBRANCH   3  12
ENDBRANCH   1   2
BRANCH   1  29
ATOM     29  N   UNL     1      33.497  11.023  -3.223  1.00  0.00    -0.292 NA
ATOM     30  C   UNL     1      34.811  10.424  -2.905  1.00  0.00     0.113 C
ATOM     31  C   UNL     1      32.384  10.084  -2.826  1.00  0.00     0.084 C
ATOM     32  C   UNL     1      34.817   9.654  -1.576  1.00  0.00     0.175 C
ATOM     33  C   UNL     1      32.883   8.639  -2.565  1.00  0.00     0.179 C
ATOM     34  O   UNL     1      33.872   8.575  -1.528  1.00  0.00    -0.378 OA
BRANCH  31  35
ATOM     35  C   UNL     1      31.199  10.159  -3.839  1.00  0.00     0.037 C
BRANCH  35  36
ATOM     36  C   UNL     1      30.771   8.864  -4.556  1.00  0.00     0.082 C
BRANCH  36  37
ATOM     37  N   UNL     1      29.397   9.021  -5.069  1.00  0.00    -0.317 NA
ATOM     38  H   UNL     1      29.101   9.993  -4.951  1.00  0.00     0.122 HD
BRANCH  37  39
ATOM     39  C   UNL     1      29.314   8.649  -6.490  1.00  0.00     0.083 C
ATOM     40  G   UNL     1      28.745   7.239  -6.740  1.00  0.00     0.000 C
ENDBRANCH  37  39
ENDBRANCH  36  37
ENDBRANCH  35  36
ENDBRANCH  31  35
ENDBRANCH   1  29
TORSDOF 0
ENDMDL
