MODEL 1
REMARK VINA RESULT:      -7.8      0.000      0.000
REMARK SMILES Cc1cnc2nc1-c1cccc(c1)COCC=C1COCc3cc(ccc3OCCN3CCC[C@H]3COC1)N2
REMARK SMILES IDX 22 1 23 2 24 3 25 4 26 5 27 6 39 7 5 9 2 10 3 11 7 12 4 13
REMARK SMILES IDX 6 14 1 15 8 16 9 17 13 18 10 19 12 20 11 21 14 22 15 23
REMARK SMILES IDX 16 24 21 26 20 27 19 28 18 29 17 30 38 32 37 33 36 34 28 36
REMARK SMILES IDX 29 37 30 38 31 39 32 40 35 41 33 42 34 43
REMARK H PARENT 39 8
REMARK Flexibility Score:  100.800
ROOT
ATOM      1  C   UNL     1      27.580  14.894  -7.398  1.00  0.00     0.022 A
ATOM      2  C   UNL     1      27.341  13.531  -7.133  1.00  0.00     0.036 A
ATOM      3  C   UNL     1      27.624  12.963  -5.881  1.00  0.00     0.042 A
ATOM      4  C   UNL     1      28.157  13.799  -4.885  1.00  0.00     0.030 A
ATOM      5  C   UNL     1      28.427  15.144  -5.131  1.00  0.00     0.049 A
ATOM      6  C   UNL     1      28.169  15.675  -6.389  1.00  0.00     0.125 A
ENDROOT
BRANCH   3   7
ATOM      7  N   UNL     1      27.444  11.612  -5.567  1.00  0.00    -0.324 N
ATOM      8  H   UNL     1      26.499  11.308  -5.390  1.00  0.00     0.170 HD
BRANCH   7   9
ATOM      9  C   UNL     1      28.295  10.530  -5.387  1.00  0.00     0.227 A
ATOM     10  C   UNL     1      29.778   8.266  -5.009  1.00  0.00    -0.006 A
ATOM     11  C   UNL     1      28.603   8.285  -5.729  1.00  0.00     0.120 A
ATOM     12  C   UNL     1      30.182   9.502  -4.526  1.00  0.00     0.079 A
ATOM     13  N   UNL     1      27.858   9.385  -5.931  1.00  0.00    -0.221 NA
ATOM     14  N   UNL     1      29.436  10.619  -4.696  1.00  0.00    -0.212 NA
ATOM     15  C   UNL     1      30.521   6.986  -4.811  1.00  0.00     0.048 C
BRANCH  12  16
ATOM     16  C   UNL     1      31.431   9.728  -3.776  1.00  0.00     0.001 A
ATOM     17  C   UNL     1      32.031   8.712  -3.013  1.00  0.00     0.010 A
ATOM     18  C   UNL     1      32.078  10.975  -3.830  1.00  0.00     0.016 A
ATOM     19  C   UNL     1      33.209   8.942  -2.300  1.00  0.00     0.001 A
ATOM     20  C   UNL     1      33.269  11.218  -3.127  1.00  0.00    -0.022 A
ATOM     21  C   UNL     1      33.822  10.192  -2.351  1.00  0.00     0.006 A
BRANCH  20  22
ATOM     22  C   UNL     1      33.959  12.556  -3.234  1.00  0.00     0.196 C
BRANCH  22  23
ATOM     23  O   UNL     1      33.289  13.603  -2.528  1.00  0.00    -0.373 OA
BRANCH  23  24
ATOM     24  C   UNL     1      33.526  14.892  -3.088  1.00  0.00     0.188 C
ATOM     25  G   UNL     1      32.456  15.154  -4.101  1.00  0.00     0.000 C
ENDBRANCH  23  24
ENDBRANCH  22  23
ENDBRANCH  20  22
ENDBRANCH  12  16
ENDBRANCH   7   9
ENDBRANCH   3   7
BRANCH   1  26
ATOM     26  C   UNL     1      27.277  15.509  -8.747  1.00  0.00     0.200 C
BRANCH  26  27
ATOM     27  O   UNL     1      25.955  15.230  -9.209  1.00  0.00    -0.372 OA
BRANCH  27  28
ATOM     28  C   UNL     1      25.704  15.815 -10.488  1.00  0.00     0.194 C
BRANCH  28  29
ATOM     29  C   UNL     1      25.787  17.326 -10.476  1.00  0.00    -0.021 C
ATOM     30  C   UNL     1      26.727  18.034 -11.139  1.00  0.00     0.005 C
ATOM     31  G   UNL     1      27.838  17.492 -11.984  1.00  0.00     0.000 C
BRANCH  29  32
ATOM     32  C   UNL     1      24.654  18.035  -9.773  1.00  0.00     0.193 C
BRANCH  32  33
ATOM     33  O   UNL     1      24.734  17.898  -8.356  1.00  0.00    -0.375 OA
BRANCH  33  34
ATOM     34  C   UNL     1      25.518  18.934  -7.748  1.00  0.00     0.179 C
ATOM     35  G   UNL     1      25.132  20.325  -8.304  1.00  0.00     0.000 C
ENDBRANCH  33  34
ENDBRANCH  32  33
ENDBRANCH  29  32
ENDBRANCH  28  29
ENDBRANCH  27  28
ENDBRANCH  26  27
ENDBRANCH   1  26
BRANCH   6  36
ATOM     36  O   UNL     1      28.475  16.999  -6.583  1.00  0.00    -0.492 OA
BRANCH  36  37
ATOM     37  C   UNL     1      29.835  17.270  -6.198  1.00  0.00     0.245 C
BRANCH  37  38
ATOM     38  C   UNL     1      30.070  18.787  -6.264  1.00  0.00     0.126 C
BRANCH  38  39
ATOM     39  N   UNL     1      31.469  19.102  -6.571  1.00  0.00    -0.295 NA
ATOM     40  C   UNL     1      32.326  17.917  -6.504  1.00  0.00     0.085 C
ATOM     41  C   UNL     1      32.063  20.081  -5.638  1.00  0.00     0.082 C
ATOM     42  C   UNL     1      33.717  18.516  -6.528  1.00  0.00     0.017 C
ATOM     43  C   UNL     1      33.570  19.867  -5.838  1.00  0.00     0.023 C
ATOM     44  G   UNL     1      31.679  21.553  -5.919  1.00  0.00     0.000 C
ENDBRANCH  38  39
ENDBRANCH  37  38
ENDBRANCH  36  37
ENDBRANCH   6  36
TORSDOF 0
ENDMDL
MODEL 2
REMARK VINA RESULT:      -7.8      1.745      4.828
REMARK SMILES Cc1cnc2nc1-c1cccc(c1)COCC=C1COCc3cc(ccc3OCCN3CCC[C@H]3COC1)N2
REMARK SMILES IDX 22 1 23 2 24 3 25 4 26 5 27 6 39 7 5 9 2 10 3 11 7 12 4 13
REMARK SMILES IDX 6 14 1 15 8 16 9 17 13 18 10 19 12 20 11 21 14 22 15 23
REMARK SMILES IDX 16 24 21 26 20 27 19 28 18 29 17 30 38 32 37 33 36 34 28 36
REMARK SMILES IDX 29 37 30 38 31 39 32 40 35 41 33 42 34 43
REMARK H PARENT 39 8
REMARK Flexibility Score:  100.800
ROOT
ATOM      1  C   UNL     1      28.921  15.155  -5.232  1.00  0.00     0.022 A
ATOM      2  C   UNL     1      29.069  13.792  -5.555  1.00  0.00     0.036 A
ATOM      3  C   UNL     1      27.958  12.964  -5.782  1.00  0.00     0.042 A
ATOM      4  C   UNL     1      26.679  13.537  -5.680  1.00  0.00     0.030 A
ATOM      5  C   UNL     1      26.507  14.876  -5.336  1.00  0.00     0.049 A
ATOM      6  C   UNL     1      27.621  15.667  -5.083  1.00  0.00     0.125 A
ENDROOT
BRANCH   3   7
ATOM      7  N   UNL     1      28.037  11.598  -6.069  1.00  0.00    -0.324 N
ATOM      8  H   UNL     1      27.366  11.231  -6.726  1.00  0.00     0.170 HD
BRANCH   7   9
ATOM      9  C   UNL     1      28.827  10.549  -5.617  1.00  0.00     0.227 A
ATOM     10  C   UNL     1      30.183   8.367  -4.684  1.00  0.00    -0.006 A
ATOM     11  C   UNL     1      29.033   8.273  -5.437  1.00  0.00     0.120 A
ATOM     12  C   UNL     1      30.634   9.662  -4.473  1.00  0.00     0.079 A
ATOM     13  N   UNL     1      28.350   9.330  -5.910  1.00  0.00    -0.221 NA
ATOM     14  N   UNL     1      29.950  10.742  -4.918  1.00  0.00    -0.212 NA
ATOM     15  C   UNL     1      30.855   7.134  -4.176  1.00  0.00     0.048 C
BRANCH  12  16
ATOM     16  C   UNL     1      31.869   9.998  -3.742  1.00  0.00     0.001 A
ATOM     17  C   UNL     1      32.720   9.004  -3.229  1.00  0.00     0.010 A
ATOM     18  C   UNL     1      32.248  11.341  -3.563  1.00  0.00     0.016 A
ATOM     19  C   UNL     1      33.882   9.338  -2.531  1.00  0.00     0.001 A
ATOM     20  C   UNL     1      33.419  11.690  -2.873  1.00  0.00    -0.022 A
ATOM     21  C   UNL     1      34.227  10.675  -2.347  1.00  0.00     0.006 A
BRANCH  20  22
ATOM     22  C   UNL     1      33.816  13.139  -2.727  1.00  0.00     0.196 C
BRANCH  22  23
ATOM     23  O   UNL     1      32.947  13.888  -1.876  1.00  0.00    -0.373 OA
BRANCH  23  24
ATOM     24  C   UNL     1      32.168  14.850  -2.582  1.00  0.00     0.188 C
ATOM     25  G   UNL     1      31.292  15.547  -1.588  1.00  0.00     0.000 C
ENDBRANCH  23  24
ENDBRANCH  22  23
ENDBRANCH  20  22
ENDBRANCH  12  16
ENDBRANCH   7   9
ENDBRANCH   3   7
BRANCH   1  26
ATOM     26  C   UNL     1      30.116  16.050  -4.986  1.00  0.00     0.200 C
BRANCH  26  27
ATOM     27  O   UNL     1      30.220  17.123  -5.924  1.00  0.00    -0.372 OA
BRANCH  27  28
ATOM     28  C   UNL     1      31.528  17.210  -6.490  1.00  0.00     0.194 C
BRANCH  28  29
ATOM     29  C   UNL     1      32.188  18.550  -6.254  1.00  0.00    -0.021 C
ATOM     30  C   UNL     1      33.509  18.780  -6.423  1.00  0.00     0.005 C
ATOM     31  G   UNL     1      34.550  17.795  -6.856  1.00  0.00     0.000 C
BRANCH  29  32
ATOM     32  C   UNL     1      31.251  19.692  -5.939  1.00  0.00     0.193 C
BRANCH  32  33
ATOM     33  O   UNL     1      31.685  20.444  -4.807  1.00  0.00    -0.375 OA
BRANCH  33  34
ATOM     34  C   UNL     1      31.926  21.821  -5.124  1.00  0.00     0.179 C
ATOM     35  G   UNL     1      33.323  22.271  -4.634  1.00  0.00     0.000 C
ENDBRANCH  33  34
ENDBRANCH  32  33
ENDBRANCH  29  32
ENDBRANCH  28  29
ENDBRANCH  27  28
ENDBRANCH  26  27
ENDBRANCH   1  26
BRANCH   6  36
ATOM     36  O   UNL     1      27.393  16.973  -4.728  1.00  0.00    -0.492 OA
BRANCH  36  37
ATOM     37  C   UNL     1      26.582  17.636  -5.715  1.00  0.00     0.245 C
BRANCH  37  38
ATOM     38  C   UNL     1      27.480  18.046  -6.893  1.00  0.00     0.126 C
BRANCH  38  39
ATOM     39  N   UNL     1      26.798  17.866  -8.178  1.00  0.00    -0.295 NA
ATOM     40  C   UNL     1      25.482  18.506  -8.196  1.00  0.00     0.085 C
ATOM     41  C   UNL     1      26.561  16.449  -8.518  1.00  0.00     0.082 C
ATOM     42  C   UNL     1      24.853  17.930  -9.448  1.00  0.00     0.017 C
ATOM     43  C   UNL     1      25.454  16.536  -9.578  1.00  0.00     0.023 C
ATOM     44  G   UNL     1      27.796  15.706  -9.080  1.00  0.00     0.000 C
ENDBRANCH  38  39
ENDBRANCH  37  38
ENDBRANCH  36  37
ENDBRANCH   6  36
TORSDOF 0
ENDMDL
MODEL 3
REMARK VINA RESULT:      -7.8      2.561      5.479
REMARK SMILES Cc1cnc2nc1-c1cccc(c1)COCC=C1COCc3cc(ccc3OCCN3CCC[C@H]3COC1)N2
REMARK SMILES IDX 22 1 23 2 24 3 25 4 26 5 27 6 39 7 5 9 2 10 3 11 7 12 4 13
REMARK SMILES IDX 6 14 1 15 8 16 9 17 13 18 10 19 12 20 11 21 14 22 15 23
REMARK SMILES IDX 16 24 21 26 20 27 19 28 18 29 17 30 38 32 37 33 36 34 28 36
REMARK SMILES IDX 29 37 30 38 31 39 32 40 35 41 33 42 34 43
REMARK H PARENT 39 8
REMARK Flexibility Score:  100.800
ROOT
ATOM      1  C   UNL     1      31.652  14.958  -4.749  1.00  0.00     0.022 A
ATOM      2  C   UNL     1      31.809  13.594  -4.431  1.00  0.00     0.036 A
ATOM      3  C   UNL     1      32.802  13.155  -3.541  1.00  0.00     0.042 A
ATOM      4  C   UNL     1      33.647  14.121  -2.968  1.00  0.00     0.030 A
ATOM      5  C   UNL     1      33.529  15.472  -3.288  1.00  0.00     0.049 A
ATOM      6  C   UNL     1      32.559  15.879  -4.196  1.00  0.00     0.125 A
ENDROOT
BRANCH   3   7
ATOM      7  N   UNL     1      33.032  11.815  -3.214  1.00  0.00    -0.324 N
ATOM      8  H   UNL     1      33.885  11.607  -2.719  1.00  0.00     0.170 HD
BRANCH   7   9
ATOM      9  C   UNL     1      32.360  10.623  -3.450  1.00  0.00     0.227 A
ATOM     10  C   UNL     1      31.248   8.169  -3.907  1.00  0.00    -0.006 A
ATOM     11  C   UNL     1      32.306   8.367  -3.047  1.00  0.00     0.120 A
ATOM     12  C   UNL     1      30.752   9.325  -4.493  1.00  0.00     0.079 A
ATOM     13  N   UNL     1      32.868   9.563  -2.803  1.00  0.00    -0.221 NA
ATOM     14  N   UNL     1      31.317  10.536  -4.282  1.00  0.00    -0.212 NA
ATOM     15  C   UNL     1      30.710   6.795  -4.138  1.00  0.00     0.048 C
BRANCH  12  16
ATOM     16  C   UNL     1      29.593   9.358  -5.404  1.00  0.00     0.001 A
ATOM     17  C   UNL     1      28.537  10.267  -5.225  1.00  0.00     0.010 A
ATOM     18  C   UNL     1      29.530   8.489  -6.508  1.00  0.00     0.016 A
ATOM     19  C   UNL     1      27.441  10.281  -6.091  1.00  0.00     0.001 A
ATOM     20  C   UNL     1      28.440   8.500  -7.392  1.00  0.00    -0.022 A
ATOM     21  C   UNL     1      27.390   9.397  -7.165  1.00  0.00     0.006 A
BRANCH  20  22
ATOM     22  C   UNL     1      28.418   7.578  -8.588  1.00  0.00     0.196 C
BRANCH  22  23
ATOM     23  O   UNL     1      27.829   6.305  -8.318  1.00  0.00    -0.373 OA
BRANCH  23  24
ATOM     24  C   UNL     1      28.762   5.359  -7.799  1.00  0.00     0.188 C
ATOM     25  G   UNL     1      28.146   4.728  -6.589  1.00  0.00     0.000 C
ENDBRANCH  23  24
ENDBRANCH  22  23
ENDBRANCH  20  22
ENDBRANCH  12  16
ENDBRANCH   7   9
ENDBRANCH   3   7
BRANCH   1  26
ATOM     26  C   UNL     1      30.583  15.436  -5.707  1.00  0.00     0.200 C
BRANCH  26  27
ATOM     27  O   UNL     1      29.579  14.454  -5.966  1.00  0.00    -0.372 OA
BRANCH  27  28
ATOM     28  C   UNL     1      28.681  14.870  -6.996  1.00  0.00     0.194 C
BRANCH  28  29
ATOM     29  C   UNL     1      27.227  14.760  -6.594  1.00  0.00    -0.021 C
ATOM     30  C   UNL     1      26.340  13.933  -7.190  1.00  0.00     0.005 C
ATOM     31  G   UNL     1      26.602  12.997  -8.328  1.00  0.00     0.000 C
BRANCH  29  32
ATOM     32  C   UNL     1      26.828  15.547  -5.367  1.00  0.00     0.193 C
BRANCH  32  33
ATOM     33  O   UNL     1      26.278  16.819  -5.703  1.00  0.00    -0.375 OA
BRANCH  33  34
ATOM     34  C   UNL     1      27.260  17.864  -5.687  1.00  0.00     0.179 C
ATOM     35  G   UNL     1      28.229  17.701  -4.491  1.00  0.00     0.000 C
ENDBRANCH  33  34
ENDBRANCH  32  33
ENDBRANCH  29  32
ENDBRANCH  28  29
ENDBRANCH  27  28
ENDBRANCH  26  27
ENDBRANCH   1  26
BRANCH   6  36
ATOM     36  O   UNL     1      32.501  17.218  -4.491  1.00  0.00    -0.492 OA
BRANCH  36  37
ATOM     37  C   UNL     1      33.286  17.517  -5.661  1.00  0.00     0.245 C
BRANCH  37  38
ATOM     38  C   UNL     1      33.512  19.035  -5.725  1.00  0.00     0.126 C
BRANCH  38  39
ATOM     39  N   UNL     1      32.266  19.775  -5.498  1.00  0.00    -0.295 NA
ATOM     40  C   UNL     1      31.159  19.244  -6.294  1.00  0.00     0.085 C
ATOM     41  C   UNL     1      32.367  21.205  -5.853  1.00  0.00     0.082 C
ATOM     42  C   UNL     1      30.106  20.324  -6.155  1.00  0.00     0.017 C
ATOM     43  C   UNL     1      30.896  21.619  -6.008  1.00  0.00     0.023 C
ATOM     44  G   UNL     1      33.072  22.083  -4.792  1.00  0.00     0.000 C
ENDBRANCH  38  39
ENDBRANCH  37  38
ENDBRANCH  36  37
ENDBRANCH   6  36
TORSDOF 0
ENDMDL
MODEL 4
REMARK VINA RESULT:      -7.7      1.837      4.724
REMARK SMILES Cc1cnc2nc1-c1cccc(c1)COCC=C1COCc3cc(ccc3OCCN3CCC[C@H]3COC1)N2
REMARK SMILES IDX 22 1 23 2 24 3 25 4 26 5 27 6 39 7 5 9 2 10 3 11 7 12 4 13
REMARK SMILES IDX 6 14 1 15 8 16 9 17 13 18 10 19 12 20 11 21 14 22 15 23
REMARK SMILES IDX 16 24 21 26 20 27 19 28 18 29 17 30 38 32 37 33 36 34 28 36
REMARK SMILES IDX 29 37 30 38 31 39 32 40 35 41 33 42 34 43
REMARK H PARENT 39 8
REMARK Flexibility Score:  100.800
ROOT
ATOM      1  C   UNL     1      28.897  15.138  -5.964  1.00  0.00     0.022 A
ATOM      2  C   UNL     1      28.756  13.741  -5.846  1.00  0.00     0.036 A
ATOM      3  C   UNL     1      27.520  13.149  -5.542  1.00  0.00     0.042 A
ATOM      4  C   UNL     1      26.413  13.995  -5.356  1.00  0.00     0.030 A
ATOM      5  C   UNL     1      26.533  15.380  -5.442  1.00  0.00     0.049 A
ATOM      6  C   UNL     1      27.775  15.945  -5.712  1.00  0.00     0.125 A
ENDROOT
BRANCH   3   7
ATOM      7  N   UNL     1      27.322  11.775  -5.375  1.00  0.00    -0.324 N
ATOM      8  H   UNL     1      26.373  11.464  -5.242  1.00  0.00     0.170 HD
BRANCH   7   9
ATOM      9  C   UNL     1      28.160  10.670  -5.300  1.00  0.00     0.227 A
ATOM     10  C   UNL     1      29.615   8.362  -5.137  1.00  0.00    -0.006 A
ATOM     11  C   UNL     1      28.429   8.457  -5.831  1.00  0.00     0.120 A
ATOM     12  C   UNL     1      30.046   9.549  -4.561  1.00  0.00     0.079 A
ATOM     13  N   UNL     1      27.697   9.579  -5.929  1.00  0.00    -0.221 NA
ATOM     14  N   UNL     1      29.314  10.685  -4.625  1.00  0.00    -0.212 NA
ATOM     15  C   UNL     1      30.342   7.060  -5.059  1.00  0.00     0.048 C
BRANCH  12  16
ATOM     16  C   UNL     1      31.311   9.695  -3.817  1.00  0.00     0.001 A
ATOM     17  C   UNL     1      31.891   8.619  -3.125  1.00  0.00     0.010 A
ATOM     18  C   UNL     1      31.993  10.924  -3.807  1.00  0.00     0.016 A
ATOM     19  C   UNL     1      33.085   8.774  -2.417  1.00  0.00     0.001 A
ATOM     20  C   UNL     1      33.199  11.092  -3.109  1.00  0.00    -0.022 A
ATOM     21  C   UNL     1      33.732  10.007  -2.403  1.00  0.00     0.006 A
BRANCH  20  22
ATOM     22  C   UNL     1      33.925  12.415  -3.146  1.00  0.00     0.196 C
BRANCH  22  23
ATOM     23  O   UNL     1      33.112  13.525  -2.763  1.00  0.00    -0.373 OA
BRANCH  23  24
ATOM     24  C   UNL     1      32.824  14.405  -3.846  1.00  0.00     0.188 C
ATOM     25  G   UNL     1      32.628  15.777  -3.279  1.00  0.00     0.000 C
ENDBRANCH  23  24
ENDBRANCH  22  23
ENDBRANCH  20  22
ENDBRANCH  12  16
ENDBRANCH   7   9
ENDBRANCH   3   7
BRANCH   1  26
ATOM     26  C   UNL     1      30.228  15.780  -6.292  1.00  0.00     0.200 C
BRANCH  26  27
ATOM     27  O   UNL     1      30.482  16.967  -5.539  1.00  0.00    -0.372 OA
BRANCH  27  28
ATOM     28  C   UNL     1      31.198  17.938  -6.303  1.00  0.00     0.194 C
BRANCH  28  29
ATOM     29  C   UNL     1      32.056  18.848  -5.452  1.00  0.00    -0.021 C
ATOM     30  C   UNL     1      33.380  19.034  -5.646  1.00  0.00     0.005 C
ATOM     31  G   UNL     1      34.237  18.400  -6.697  1.00  0.00     0.000 C
BRANCH  29  32
ATOM     32  C   UNL     1      31.314  19.669  -4.423  1.00  0.00     0.193 C
BRANCH  32  33
ATOM     33  O   UNL     1      30.128  20.253  -4.959  1.00  0.00    -0.375 OA
BRANCH  33  34
ATOM     34  C   UNL     1      30.406  21.364  -5.822  1.00  0.00     0.179 C
ATOM     35  G   UNL     1      29.197  21.679  -6.734  1.00  0.00     0.000 C
ENDBRANCH  33  34
ENDBRANCH  32  33
ENDBRANCH  29  32
ENDBRANCH  28  29
ENDBRANCH  27  28
ENDBRANCH  26  27
ENDBRANCH   1  26
BRANCH   6  36
ATOM     36  O   UNL     1      27.840  17.314  -5.763  1.00  0.00    -0.492 OA
BRANCH  36  37
ATOM     37  C   UNL     1      27.357  17.801  -7.028  1.00  0.00     0.245 C
BRANCH  37  38
ATOM     38  C   UNL     1      26.150  18.717  -6.773  1.00  0.00     0.126 C
BRANCH  38  39
ATOM     39  N   UNL     1      25.786  19.477  -7.973  1.00  0.00    -0.295 NA
ATOM     40  C   UNL     1      25.786  20.920  -7.730  1.00  0.00     0.085 C
ATOM     41  C   UNL     1      24.437  19.154  -8.480  1.00  0.00     0.082 C
ATOM     42  C   UNL     1      25.089  21.460  -8.962  1.00  0.00     0.017 C
ATOM     43  C   UNL     1      24.111  20.364  -9.366  1.00  0.00     0.023 C
ATOM     44  G   UNL     1      24.353  17.842  -9.296  1.00  0.00     0.000 C
ENDBRANCH  38  39
ENDBRANCH  37  38
ENDBRANCH  36  37
ENDBRANCH   6  36
TORSDOF 0
ENDMDL
MODEL 5
REMARK VINA RESULT:      -7.7      3.668      8.300
REMARK SMILES Cc1cnc2nc1-c1cccc(c1)COCC=C1COCc3cc(ccc3OCCN3CCC[C@H]3COC1)N2
REMARK SMILES IDX 22 1 23 2 24 3 25 4 26 5 27 6 39 7 5 9 2 10 3 11 7 12 4 13
REMARK SMILES IDX 6 14 1 15 8 16 9 17 13 18 10 19 12 20 11 21 14 22 15 23
REMARK SMILES IDX 16 24 21 26 20 27 19 28 18 29 17 30 38 32 37 33 36 34 28 36
REMARK SMILES IDX 29 37 30 38 31 39 32 40 35 41 33 42 34 43
REMARK H PARENT 39 8
REMARK Flexibility Score:  100.800
ROOT
ATOM      1  C   UNL     1      29.098  10.147  -4.899  1.00  0.00     0.022 A
ATOM      2  C   UNL     1      30.265   9.981  -4.127  1.00  0.00     0.036 A
ATOM      3  C   UNL     1      30.895   8.733  -4.003  1.00  0.00     0.042 A
ATOM      4  C   UNL     1      30.326   7.638  -4.677  1.00  0.00     0.030 A
ATOM      5  C   UNL     1      29.158   7.772  -5.424  1.00  0.00     0.049 A
ATOM      6  C   UNL     1      28.534   9.011  -5.505  1.00  0.00     0.125 A
ENDROOT
BRANCH   3   7
ATOM      7  N   UNL     1      32.032   8.495  -3.224  1.00  0.00    -0.324 N
ATOM      8  H   UNL     1      32.177   7.550  -2.906  1.00  0.00     0.170 HD
BRANCH   7   9
ATOM      9  C   UNL     1      33.049   9.291  -2.713  1.00  0.00     0.227 A
ATOM     10  C   UNL     1      35.049  10.719  -1.517  1.00  0.00    -0.006 A
ATOM     11  C   UNL     1      34.947   9.348  -1.430  1.00  0.00     0.120 A
ATOM     12  C   UNL     1      34.080  11.323  -2.305  1.00  0.00     0.079 A
ATOM     13  N   UNL     1      33.976   8.623  -2.010  1.00  0.00    -0.221 NA
ATOM     14  N   UNL     1      33.079  10.618  -2.880  1.00  0.00    -0.212 NA
ATOM     15  C   UNL     1      36.148  11.440  -0.809  1.00  0.00     0.048 C
BRANCH  12  16
ATOM     16  C   UNL     1      34.025  12.770  -2.582  1.00  0.00     0.001 A
ATOM     17  C   UNL     1      32.818  13.420  -2.891  1.00  0.00     0.010 A
ATOM     18  C   UNL     1      35.191  13.553  -2.513  1.00  0.00     0.016 A
ATOM     19  C   UNL     1      32.782  14.790  -3.160  1.00  0.00     0.001 A
ATOM     20  C   UNL     1      35.168  14.933  -2.770  1.00  0.00    -0.022 A
ATOM     21  C   UNL     1      33.954  15.541  -3.107  1.00  0.00     0.006 A
BRANCH  20  22
ATOM     22  C   UNL     1      36.431  15.752  -2.654  1.00  0.00     0.196 C
BRANCH  22  23
ATOM     23  O   UNL     1      36.870  15.940  -1.308  1.00  0.00    -0.373 OA
BRANCH  23  24
ATOM     24  C   UNL     1      37.600  17.151  -1.124  1.00  0.00     0.188 C
ATOM     25  G   UNL     1      37.963  17.248   0.325  1.00  0.00     0.000 C
ENDBRANCH  23  24
ENDBRANCH  22  23
ENDBRANCH  20  22
ENDBRANCH  12  16
ENDBRANCH   7   9
ENDBRANCH   3   7
BRANCH   1  26
ATOM     26  C   UNL     1      28.416  11.491  -5.035  1.00  0.00     0.200 C
BRANCH  26  27
ATOM     27  O   UNL     1      29.332  12.570  -5.224  1.00  0.00    -0.372 OA
BRANCH  27  28
ATOM     28  C   UNL     1      29.154  13.596  -4.245  1.00  0.00     0.194 C
BRANCH  28  29
ATOM     29  C   UNL     1      28.846  14.947  -4.852  1.00  0.00    -0.021 C
ATOM     30  C   UNL     1      27.595  15.412  -5.062  1.00  0.00     0.005 C
ATOM     31  G   UNL     1      26.308  14.712  -4.756  1.00  0.00     0.000 C
BRANCH  29  32
ATOM     32  C   UNL     1      30.040  15.839  -5.097  1.00  0.00     0.193 C
BRANCH  32  33
ATOM     33  O   UNL     1      29.855  16.680  -6.234  1.00  0.00    -0.375 OA
BRANCH  33  34
ATOM     34  C   UNL     1      30.817  17.743  -6.292  1.00  0.00     0.179 C
ATOM     35  G   UNL     1      32.224  17.204  -6.642  1.00  0.00     0.000 C
ENDBRANCH  33  34
ENDBRANCH  32  33
ENDBRANCH  29  32
ENDBRANCH  28  29
ENDBRANCH  27  28
ENDBRANCH  26  27
ENDBRANCH   1  26
BRANCH   6  36
ATOM     36  O   UNL     1      27.375   9.081  -6.236  1.00  0.00    -0.492 OA
BRANCH  36  37
ATOM     37  C   UNL     1      27.182   7.877  -7.002  1.00  0.00     0.245 C
BRANCH  37  38
ATOM     38  C   UNL     1      28.215   7.849  -8.139  1.00  0.00     0.126 C
BRANCH  38  39
ATOM     39  N   UNL     1      28.094   6.630  -8.946  1.00  0.00    -0.295 NA
ATOM     40  C   UNL     1      26.903   6.651  -9.797  1.00  0.00     0.085 C
ATOM     41  C   UNL     1      27.986   5.402  -8.132  1.00  0.00     0.082 C
ATOM     42  C   UNL     1      26.812   5.215 -10.269  1.00  0.00     0.017 C
ATOM     43  C   UNL     1      27.390   4.392  -9.124  1.00  0.00     0.023 C
ATOM     44  G   UNL     1      29.329   4.884  -7.568  1.00  0.00     0.000 C
ENDBRANCH  38  39
ENDBRANCH  37  38
ENDBRANCH  36  37
ENDBRANCH   6  36
TORSDOF 0
ENDMDL
MODEL 6
REMARK VINA RESULT:      -7.7      2.156      4.266
REMARK SMILES Cc1cnc2nc1-c1cccc(c1)COCC=C1COCc3cc(ccc3OCCN3CCC[C@H]3COC1)N2
REMARK SMILES IDX 22 1 23 2 24 3 25 4 26 5 27 6 39 7 5 9 2 10 3 11 7 12 4 13
REMARK SMILES IDX 6 14 1 15 8 16 9 17 13 18 10 19 12 20 11 21 14 22 15 23
REMARK SMILES IDX 16 24 21 26 20 27 19 28 18 29 17 30 38 32 37 33 36 34 28 36
REMARK SMILES IDX 29 37 30 38 31 39 32 40 35 41 33 42 34 43
REMARK H PARENT 39 8
REMARK Flexibility Score:  100.800
ROOT
ATOM      1  C   UNL     1      30.103  15.812  -5.288  1.00  0.00     0.022 A
ATOM      2  C   UNL     1      31.061  14.808  -5.045  1.00  0.00     0.036 A
ATOM      3  C   UNL     1      32.162  15.028  -4.203  1.00  0.00     0.042 A
ATOM      4  C   UNL     1      32.286  16.291  -3.599  1.00  0.00     0.030 A
ATOM      5  C   UNL     1      31.367  17.308  -3.844  1.00  0.00     0.049 A
ATOM      6  C   UNL     1      30.303  17.076  -4.708  1.00  0.00     0.125 A
ENDROOT
BRANCH   3   7
ATOM      7  N   UNL     1      33.165  14.086  -3.951  1.00  0.00    -0.324 N
ATOM      8  H   UNL     1      34.115  14.374  -4.129  1.00  0.00     0.170 HD
BRANCH   7   9
ATOM      9  C   UNL     1      33.179  12.761  -3.534  1.00  0.00     0.227 A
ATOM     10  C   UNL     1      33.440  10.167  -2.717  1.00  0.00    -0.006 A
ATOM     11  C   UNL     1      34.279  11.176  -2.297  1.00  0.00     0.120 A
ATOM     12  C   UNL     1      32.413  10.577  -3.555  1.00  0.00     0.079 A
ATOM     13  N   UNL     1      34.170  12.459  -2.682  1.00  0.00    -0.221 NA
ATOM     14  N   UNL     1      32.297  11.858  -3.975  1.00  0.00    -0.212 NA
ATOM     15  C   UNL     1      33.662   8.763  -2.259  1.00  0.00     0.048 C
BRANCH  12  16
ATOM     16  C   UNL     1      31.370   9.680  -4.083  1.00  0.00     0.001 A
ATOM     17  C   UNL     1      31.519   8.282  -4.073  1.00  0.00     0.010 A
ATOM     18  C   UNL     1      30.168  10.206  -4.590  1.00  0.00     0.016 A
ATOM     19  C   UNL     1      30.526   7.445  -4.585  1.00  0.00     0.001 A
ATOM     20  C   UNL     1      29.156   9.375  -5.097  1.00  0.00    -0.022 A
ATOM     21  C   UNL     1      29.353   7.989  -5.101  1.00  0.00     0.006 A
BRANCH  20  22
ATOM     22  C   UNL     1      27.864   9.969  -5.602  1.00  0.00     0.196 C
BRANCH  22  23
ATOM     23  O   UNL     1      28.031  11.220  -6.270  1.00  0.00    -0.373 OA
BRANCH  23  24
ATOM     24  C   UNL     1      27.163  12.237  -5.773  1.00  0.00     0.188 C
ATOM     25  G   UNL     1      26.513  12.896  -6.949  1.00  0.00     0.000 C
ENDBRANCH  23  24
ENDBRANCH  22  23
ENDBRANCH  20  22
ENDBRANCH  12  16
ENDBRANCH   7   9
ENDBRANCH   3   7
BRANCH   1  26
ATOM     26  C   UNL     1      28.915  15.578  -6.195  1.00  0.00     0.200 C
BRANCH  26  27
ATOM     27  O   UNL     1      28.916  16.416  -7.352  1.00  0.00    -0.372 OA
BRANCH  27  28
ATOM     28  C   UNL     1      27.992  15.959  -8.340  1.00  0.00     0.194 C
BRANCH  28  29
ATOM     29  C   UNL     1      26.752  16.821  -8.437  1.00  0.00    -0.021 C
ATOM     30  C   UNL     1      25.635  16.463  -9.105  1.00  0.00     0.005 C
ATOM     31  G   UNL     1      25.403  15.192  -9.863  1.00  0.00     0.000 C
BRANCH  29  32
ATOM     32  C   UNL     1      26.773  18.087  -7.612  1.00  0.00     0.193 C
BRANCH  32  33
ATOM     33  O   UNL     1      27.021  19.242  -8.411  1.00  0.00    -0.375 OA
BRANCH  33  34
ATOM     34  C   UNL     1      27.646  20.298  -7.669  1.00  0.00     0.179 C
ATOM     35  G   UNL     1      26.625  21.021  -6.759  1.00  0.00     0.000 C
ENDBRANCH  33  34
ENDBRANCH  32  33
ENDBRANCH  29  32
ENDBRANCH  28  29
ENDBRANCH  27  28
ENDBRANCH  26  27
ENDBRANCH   1  26
BRANCH   6  36
ATOM     36  O   UNL     1      29.440  18.120  -4.931  1.00  0.00    -0.492 OA
BRANCH  36  37
ATOM     37  C   UNL     1      30.150  19.372  -4.957  1.00  0.00     0.245 C
BRANCH  37  38
ATOM     38  C   UNL     1      31.089  19.378  -6.173  1.00  0.00     0.126 C
BRANCH  38  39
ATOM     39  N   UNL     1      32.369  20.022  -5.863  1.00  0.00    -0.295 NA
ATOM     40  C   UNL     1      32.288  21.480  -5.962  1.00  0.00     0.085 C
ATOM     41  C   UNL     1      33.460  19.617  -6.772  1.00  0.00     0.082 C
ATOM     42  C   UNL     1      33.745  21.893  -5.927  1.00  0.00     0.017 C
ATOM     43  C   UNL     1      34.492  20.738  -6.581  1.00  0.00     0.023 C
ATOM     44  G   UNL     1      34.086  18.239  -6.451  1.00  0.00     0.000 C
ENDBRANCH  38  39
ENDBRANCH  37  38
ENDBRANCH  36  37
ENDBRANCH   6  36
TORSDOF 0
ENDMDL
MODEL 7
REMARK VINA RESULT:      -7.6      2.352      4.828
REMARK SMILES Cc1cnc2nc1-c1cccc(c1)COCC=C1COCc3cc(ccc3OCCN3CCC[C@H]3COC1)N2
REMARK SMILES IDX 22 1 23 2 24 3 25 4 26 5 27 6 39 7 5 9 2 10 3 11 7 12 4 13
REMARK SMILES IDX 6 14 1 15 8 16 9 17 13 18 10 19 12 20 11 21 14 22 15 23
REMARK SMILES IDX 16 24 21 26 20 27 19 28 18 29 17 30 38 32 37 33 36 34 28 36
REMARK SMILES IDX 29 37 30 38 31 39 32 40 35 41 33 42 34 43
REMARK H PARENT 39 8
REMARK Flexibility Score:  100.800
ROOT
ATOM      1  C   UNL     1      30.153  15.644  -5.625  1.00  0.00     0.022 A
ATOM      2  C   UNL     1      31.160  14.682  -5.410  1.00  0.00     0.036 A
ATOM      3  C   UNL     1      32.015  14.746  -4.298  1.00  0.00     0.042 A
ATOM      4  C   UNL     1      31.840  15.807  -3.393  1.00  0.00     0.030 A
ATOM      5  C   UNL     1      30.870  16.785  -3.598  1.00  0.00     0.049 A
ATOM      6  C   UNL     1      30.056  16.718  -4.724  1.00  0.00     0.125 A
ENDROOT
BRANCH   3   7
ATOM      7  N   UNL     1      33.055  13.844  -4.049  1.00  0.00    -0.324 N
ATOM      8  H   UNL     1      33.987  14.149  -4.279  1.00  0.00     0.170 HD
BRANCH   7   9
ATOM      9  C   UNL     1      33.124  12.540  -3.575  1.00  0.00     0.227 A
ATOM     10  C   UNL     1      33.494  10.000  -2.638  1.00  0.00    -0.006 A
ATOM     11  C   UNL     1      34.254  11.073  -2.225  1.00  0.00     0.120 A
ATOM     12  C   UNL     1      32.486  10.315  -3.538  1.00  0.00     0.079 A
ATOM     13  N   UNL     1      34.090  12.331  -2.668  1.00  0.00    -0.221 NA
ATOM     14  N   UNL     1      32.317  11.570  -4.016  1.00  0.00    -0.212 NA
ATOM     15  C   UNL     1      33.774   8.631  -2.112  1.00  0.00     0.048 C
BRANCH  12  16
ATOM     16  C   UNL     1      31.521   9.338  -4.073  1.00  0.00     0.001 A
ATOM     17  C   UNL     1      31.573   7.977  -3.724  1.00  0.00     0.010 A
ATOM     18  C   UNL     1      30.490   9.753  -4.934  1.00  0.00     0.016 A
ATOM     19  C   UNL     1      30.658   7.061  -4.245  1.00  0.00     0.001 A
ATOM     20  C   UNL     1      29.556   8.845  -5.457  1.00  0.00    -0.022 A
ATOM     21  C   UNL     1      29.658   7.492  -5.114  1.00  0.00     0.006 A
BRANCH  20  22
ATOM     22  C   UNL     1      28.441   9.328  -6.352  1.00  0.00     0.196 C
BRANCH  22  23
ATOM     23  O   UNL     1      27.138   8.974  -5.885  1.00  0.00    -0.373 OA
BRANCH  23  24
ATOM     24  C   UNL     1      26.408   8.181  -6.818  1.00  0.00     0.188 C
ATOM     25  G   UNL     1      27.290   7.946  -8.005  1.00  0.00     0.000 C
ENDBRANCH  23  24
ENDBRANCH  22  23
ENDBRANCH  20  22
ENDBRANCH  12  16
ENDBRANCH   7   9
ENDBRANCH   3   7
BRANCH   1  26
ATOM     26  C   UNL     1      29.230  15.579  -6.821  1.00  0.00     0.200 C
BRANCH  26  27
ATOM     27  O   UNL     1      28.201  14.597  -6.686  1.00  0.00    -0.372 OA
BRANCH  27  28
ATOM     28  C   UNL     1      26.939  15.189  -6.375  1.00  0.00     0.194 C
BRANCH  28  29
ATOM     29  C   UNL     1      26.035  15.327  -7.580  1.00  0.00    -0.021 C
ATOM     30  C   UNL     1      25.998  16.419  -8.374  1.00  0.00     0.005 C
ATOM     31  G   UNL     1      26.807  17.671  -8.227  1.00  0.00     0.000 C
BRANCH  29  32
ATOM     32  C   UNL     1      25.245  14.093  -7.947  1.00  0.00     0.193 C
BRANCH  32  33
ATOM     33  O   UNL     1      25.892  12.896  -7.517  1.00  0.00    -0.375 OA
BRANCH  33  34
ATOM     34  C   UNL     1      26.402  12.125  -8.613  1.00  0.00     0.179 C
ATOM     35  G   UNL     1      25.414  11.005  -9.016  1.00  0.00     0.000 C
ENDBRANCH  33  34
ENDBRANCH  32  33
ENDBRANCH  29  32
ENDBRANCH  28  29
ENDBRANCH  27  28
ENDBRANCH  26  27
ENDBRANCH   1  26
BRANCH   6  36
ATOM     36  O   UNL     1      29.133  17.720  -4.887  1.00  0.00    -0.492 OA
BRANCH  36  37
ATOM     37  C   UNL     1      29.781  19.003  -4.962  1.00  0.00     0.245 C
BRANCH  37  38
ATOM     38  C   UNL     1      30.214  19.250  -6.415  1.00  0.00     0.126 C
BRANCH  38  39
ATOM     39  N   UNL     1      31.645  19.560  -6.505  1.00  0.00    -0.295 NA
ATOM     40  C   UNL     1      32.467  18.351  -6.558  1.00  0.00     0.085 C
ATOM     41  C   UNL     1      32.145  20.337  -5.352  1.00  0.00     0.082 C
ATOM     42  C   UNL     1      33.862  18.891  -6.322  1.00  0.00     0.017 C
ATOM     43  C   UNL     1      33.661  20.104  -5.421  1.00  0.00     0.023 C
ATOM     44  G   UNL     1      31.823  21.849  -5.406  1.00  0.00     0.000 C
ENDBRANCH  38  39
ENDBRANCH  37  38
ENDBRANCH  36  37
ENDBRANCH   6  36
TORSDOF 0
ENDMDL
MODEL 8
REMARK VINA RESULT:      -7.6      2.634      5.922
REMARK SMILES Cc1cnc2nc1-c1cccc(c1)COCC=C1COCc3cc(ccc3OCCN3CCC[C@H]3COC1)N2
REMARK SMILES IDX 22 1 23 2 24 3 25 4 26 5 27 6 39 7 5 9 2 10 3 11 7 12 4 13
REMARK SMILES IDX 6 14 1 15 8 16 9 17 13 18 10 19 12 20 11 21 14 22 15 23
REMARK SMILES IDX 16 24 21 26 20 27 19 28 18 29 17 30 38 32 37 33 36 34 28 36
REMARK SMILES IDX 29 37 30 38 31 39 32 40 35 41 33 42 34 43
REMARK H PARENT 39 8
REMARK Flexibility Score:  100.800
ROOT
ATOM      1  C   UNL     1      28.673  14.609  -5.035  1.00  0.00     0.022 A
ATOM      2  C   UNL     1      28.177  13.436  -5.640  1.00  0.00     0.036 A
ATOM      3  C   UNL     1      26.991  13.439  -6.389  1.00  0.00     0.042 A
ATOM      4  C   UNL     1      26.300  14.656  -6.524  1.00  0.00     0.030 A
ATOM      5  C   UNL     1      26.756  15.823  -5.914  1.00  0.00     0.049 A
ATOM      6  C   UNL     1      27.917  15.787  -5.149  1.00  0.00     0.125 A
ENDROOT
BRANCH   3   7
ATOM      7  N   UNL     1      26.428  12.304  -6.982  1.00  0.00    -0.324 N
ATOM      8  H   UNL     1      25.440  12.336  -7.180  1.00  0.00     0.170 HD
BRANCH   7   9
ATOM      9  C   UNL     1      26.909  11.054  -7.349  1.00  0.00     0.227 A
ATOM     10  C   UNL     1      27.644   8.553  -8.168  1.00  0.00    -0.006 A
ATOM     11  C   UNL     1      26.844   9.386  -8.919  1.00  0.00     0.120 A
ATOM     12  C   UNL     1      28.094   9.101  -6.975  1.00  0.00     0.079 A
ATOM     13  N   UNL     1      26.471  10.620  -8.540  1.00  0.00    -0.221 NA
ATOM     14  N   UNL     1      27.713  10.332  -6.562  1.00  0.00    -0.212 NA
ATOM     15  C   UNL     1      27.979   7.183  -8.660  1.00  0.00     0.048 C
BRANCH  12  16
ATOM     16  C   UNL     1      29.002   8.412  -6.040  1.00  0.00     0.001 A
ATOM     17  C   UNL     1      29.035   7.011  -5.936  1.00  0.00     0.010 A
ATOM     18  C   UNL     1      29.892   9.150  -5.239  1.00  0.00     0.016 A
ATOM     19  C   UNL     1      29.894   6.373  -5.039  1.00  0.00     0.001 A
ATOM     20  C   UNL     1      30.769   8.521  -4.341  1.00  0.00    -0.022 A
ATOM     21  C   UNL     1      30.752   7.125  -4.240  1.00  0.00     0.006 A
BRANCH  20  22
ATOM     22  C   UNL     1      31.737   9.339  -3.520  1.00  0.00     0.196 C
BRANCH  22  23
ATOM     23  O   UNL     1      31.744   8.995  -2.134  1.00  0.00    -0.373 OA
BRANCH  23  24
ATOM     24  C   UNL     1      33.018   9.179  -1.521  1.00  0.00     0.188 C
ATOM     25  G   UNL     1      34.065   8.911  -2.557  1.00  0.00     0.000 C
ENDBRANCH  23  24
ENDBRANCH  22  23
ENDBRANCH  20  22
ENDBRANCH  12  16
ENDBRANCH   7   9
ENDBRANCH   3   7
BRANCH   1  26
ATOM     26  C   UNL     1      29.952  14.609  -4.226  1.00  0.00     0.200 C
BRANCH  26  27
ATOM     27  O   UNL     1      30.694  13.395  -4.345  1.00  0.00    -0.372 OA
BRANCH  27  28
ATOM     28  C   UNL     1      32.058  13.637  -4.693  1.00  0.00     0.194 C
BRANCH  28  29
ATOM     29  C   UNL     1      32.816  14.398  -3.627  1.00  0.00    -0.021 C
ATOM     30  C   UNL     1      33.243  15.671  -3.769  1.00  0.00     0.005 C
ATOM     31  G   UNL     1      33.067  16.555  -4.965  1.00  0.00     0.000 C
BRANCH  29  32
ATOM     32  C   UNL     1      32.962  13.689  -2.300  1.00  0.00     0.193 C
BRANCH  32  33
ATOM     33  O   UNL     1      33.749  12.505  -2.410  1.00  0.00    -0.375 OA
BRANCH  33  34
ATOM     34  C   UNL     1      35.156  12.773  -2.333  1.00  0.00     0.179 C
ATOM     35  G   UNL     1      35.849  11.830  -1.321  1.00  0.00     0.000 C
ENDBRANCH  33  34
ENDBRANCH  32  33
ENDBRANCH  29  32
ENDBRANCH  28  29
ENDBRANCH  27  28
ENDBRANCH  26  27
ENDBRANCH   1  26
BRANCH   6  36
ATOM     36  O   UNL     1      28.308  16.960  -4.553  1.00  0.00    -0.492 OA
BRANCH  36  37
ATOM     37  C   UNL     1      29.384  17.571  -5.288  1.00  0.00     0.245 C
BRANCH  37  38
ATOM     38  C   UNL     1      28.862  18.858  -5.945  1.00  0.00     0.126 C
BRANCH  38  39
ATOM     39  N   UNL     1      29.961  19.731  -6.369  1.00  0.00    -0.295 NA
ATOM     40  C   UNL     1      31.222  19.384  -5.714  1.00  0.00     0.085 C
ATOM     41  C   UNL     1      29.725  21.156  -6.060  1.00  0.00     0.082 C
ATOM     42  C   UNL     1      32.100  20.575  -6.038  1.00  0.00     0.017 C
ATOM     43  C   UNL     1      31.138  21.753  -6.126  1.00  0.00     0.023 C
ATOM     44  G   UNL     1      28.780  21.881  -7.047  1.00  0.00     0.000 C
ENDBRANCH  38  39
ENDBRANCH  37  38
ENDBRANCH  36  37
ENDBRANCH   6  36
TORSDOF 0
ENDMDL
MODEL 9
REMARK VINA RESULT:      -7.6      1.132      2.235
REMARK SMILES Cc1cnc2nc1-c1cccc(c1)COCC=C1COCc3cc(ccc3OCCN3CCC[C@H]3COC1)N2
REMARK SMILES IDX 22 1 23 2 24 3 25 4 26 5 27 6 39 7 5 9 2 10 3 11 7 12 4 13
REMARK SMILES IDX 6 14 1 15 8 16 9 17 13 18 10 19 12 20 11 21 14 22 15 23
REMARK SMILES IDX 16 24 21 26 20 27 19 28 18 29 17 30 38 32 37 33 36 34 28 36
REMARK SMILES IDX 29 37 30 38 31 39 32 40 35 41 33 42 34 43
REMARK H PARENT 39 8
REMARK Flexibility Score:  100.800
ROOT
ATOM      1  C   UNL     1      28.138  15.309  -6.873  1.00  0.00     0.022 A
ATOM      2  C   UNL     1      27.872  13.925  -6.871  1.00  0.00     0.036 A
ATOM      3  C   UNL     1      28.124  13.127  -5.744  1.00  0.00     0.042 A
ATOM      4  C   UNL     1      28.656  13.751  -4.602  1.00  0.00     0.030 A
ATOM      5  C   UNL     1      28.952  15.112  -4.588  1.00  0.00     0.049 A
ATOM      6  C   UNL     1      28.724  15.875  -5.728  1.00  0.00     0.125 A
ENDROOT
BRANCH   3   7
ATOM      7  N   UNL     1      27.917  11.745  -5.692  1.00  0.00    -0.324 N
ATOM      8  H   UNL     1      26.976  11.420  -5.852  1.00  0.00     0.170 HD
BRANCH   7   9
ATOM      9  C   UNL     1      28.720  10.647  -5.416  1.00  0.00     0.227 A
ATOM     10  C   UNL     1      30.104   8.359  -4.851  1.00  0.00    -0.006 A
ATOM     11  C   UNL     1      28.955   8.375  -5.610  1.00  0.00     0.120 A
ATOM     12  C   UNL     1      30.539   9.608  -4.430  1.00  0.00     0.079 A
ATOM     13  N   UNL     1      28.258   9.486  -5.904  1.00  0.00    -0.221 NA
ATOM     14  N   UNL     1      29.842  10.737  -4.694  1.00  0.00    -0.212 NA
ATOM     15  C   UNL     1      30.792   7.068  -4.549  1.00  0.00     0.048 C
BRANCH  12  16
ATOM     16  C   UNL     1      31.771   9.835  -3.653  1.00  0.00     0.001 A
ATOM     17  C   UNL     1      32.426   8.790  -2.981  1.00  0.00     0.010 A
ATOM     18  C   UNL     1      32.345  11.117  -3.589  1.00  0.00     0.016 A
ATOM     19  C   UNL     1      33.587   9.021  -2.241  1.00  0.00     0.001 A
ATOM     20  C   UNL     1      33.518  11.363  -2.857  1.00  0.00    -0.022 A
ATOM     21  C   UNL     1      34.127  10.304  -2.174  1.00  0.00     0.006 A
BRANCH  20  22
ATOM     22  C   UNL     1      34.130  12.743  -2.836  1.00  0.00     0.196 C
BRANCH  22  23
ATOM     23  O   UNL     1      33.485  13.668  -3.712  1.00  0.00    -0.373 OA
BRANCH  23  24
ATOM     24  C   UNL     1      33.241  14.934  -3.104  1.00  0.00     0.188 C
ATOM     25  G   UNL     1      32.084  14.775  -2.167  1.00  0.00     0.000 C
ENDBRANCH  23  24
ENDBRANCH  22  23
ENDBRANCH  20  22
ENDBRANCH  12  16
ENDBRANCH   7   9
ENDBRANCH   3   7
BRANCH   1  26
ATOM     26  C   UNL     1      27.867  16.171  -8.086  1.00  0.00     0.200 C
BRANCH  26  27
ATOM     27  O   UNL     1      26.718  17.007  -7.937  1.00  0.00    -0.372 OA
BRANCH  27  28
ATOM     28  C   UNL     1      25.630  16.565  -8.750  1.00  0.00     0.194 C
BRANCH  28  29
ATOM     29  C   UNL     1      25.561  17.272 -10.086  1.00  0.00    -0.021 C
ATOM     30  C   UNL     1      25.325  18.594 -10.227  1.00  0.00     0.005 C
ATOM     31  G   UNL     1      25.088  19.591  -9.136  1.00  0.00     0.000 C
BRANCH  29  32
ATOM     32  C   UNL     1      25.913  16.428 -11.289  1.00  0.00     0.193 C
BRANCH  32  33
ATOM     33  O   UNL     1      27.321  16.361 -11.502  1.00  0.00    -0.375 OA
BRANCH  33  34
ATOM     34  C   UNL     1      27.802  15.011 -11.569  1.00  0.00     0.179 C
ATOM     35  G   UNL     1      29.049  14.907 -12.478  1.00  0.00     0.000 C
ENDBRANCH  33  34
ENDBRANCH  32  33
ENDBRANCH  29  32
ENDBRANCH  28  29
ENDBRANCH  27  28
ENDBRANCH  26  27
ENDBRANCH   1  26
BRANCH   6  36
ATOM     36  O   UNL     1      29.055  17.205  -5.666  1.00  0.00    -0.492 OA
BRANCH  36  37
ATOM     37  C   UNL     1      30.474  17.386  -5.827  1.00  0.00     0.245 C
BRANCH  37  38
ATOM     38  C   UNL     1      30.726  18.777  -6.429  1.00  0.00     0.126 C
BRANCH  38  39
ATOM     39  N   UNL     1      31.601  19.584  -5.572  1.00  0.00    -0.295 NA
ATOM     40  C   UNL     1      31.021  20.894  -5.273  1.00  0.00     0.085 C
ATOM     41  C   UNL     1      32.919  19.856  -6.180  1.00  0.00     0.082 C
ATOM     42  C   UNL     1      32.195  21.644  -4.679  1.00  0.00     0.017 C
ATOM     43  C   UNL     1      33.419  21.063  -5.373  1.00  0.00     0.023 C
ATOM     44  G   UNL     1      33.925  18.684  -6.089  1.00  0.00     0.000 C
ENDBRANCH  38  39
ENDBRANCH  37  38
ENDBRANCH  36  37
ENDBRANCH   6  36
TORSDOF 0
ENDMDL
