MODEL 1
REMARK VINA RESULT:      -8.0      0.000      0.000
REMARK SMILES N#CC1CN(C(=O)[C@@H]2NC(=O)c3c[nH]c4ncc(nc34)[C@]3(CC3)COCNC[C@]23CC3)C1
REMARK SMILES IDX 29 1 30 2 31 3 8 4 6 5 1 6 2 7 3 8 4 9 32 10 5 11 7 12 9 13
REMARK SMILES IDX 10 14 11 15 12 17 13 18 20 19 14 20 19 21 15 22 18 23 16 24
REMARK SMILES IDX 17 25 21 27 22 28 23 29 28 31 27 32 26 34 25 35 24 36
REMARK H PARENT 9 16 14 26 27 33
REMARK Flexibility Score:  127.900
ROOT
ATOM      1  C   UNL     1      28.983  17.220  -5.540  1.00  0.00     0.012 C
ATOM      2  C   UNL     1      28.097  17.764  -6.653  1.00  0.00     0.012 C
ATOM      3  C   UNL     1      27.478  17.346  -5.351  1.00  0.00     0.012 C
ENDROOT
BRANCH   1   4
ATOM      4  C   UNL     1      29.559  15.798  -5.742  1.00  0.00     0.179 C
BRANCH   4   5
ATOM      5  C   UNL     1      28.589  14.711  -5.212  1.00  0.00     0.245 C
ATOM      6  N   UNL     1      24.770  12.558  -8.843  1.00  0.00    -0.198 NA
ATOM      7  C   UNL     1      25.756  12.666  -8.240  1.00  0.00     0.069 C
ATOM      8  C   UNL     1      26.981  12.807  -7.494  1.00  0.00     0.131 C
ATOM      9  C   UNL     1      26.816  13.049  -5.984  1.00  0.00     0.140 C
ATOM     10  C   UNL     1      27.649  14.193  -7.578  1.00  0.00     0.140 C
ATOM     11  N   UNL     1      27.782  14.117  -6.141  1.00  0.00    -0.338 N
ATOM     12  O   UNL     1      28.558  14.365  -4.029  1.00  0.00    -0.272 OA
ENDBRANCH   4   5
BRANCH   4  13
ATOM     13  N   UNL     1      30.814  15.663  -5.026  1.00  0.00    -0.340 N
ATOM     14  C   UNL     1      31.753  14.694  -5.254  1.00  0.00     0.255 C
ATOM     15  O   UNL     1      31.700  13.906  -6.192  1.00  0.00    -0.269 OA
ATOM     16  H   UNL     1      30.975  16.243  -4.210  1.00  0.00     0.164 HD
BRANCH  14  17
ATOM     17  C   UNL     1      32.787  14.659  -4.222  1.00  0.00     0.085 A
ATOM     18  C   UNL     1      33.544  15.729  -3.765  1.00  0.00     0.100 A
ATOM     19  C   UNL     1      33.261  13.516  -3.516  1.00  0.00     0.120 A
ATOM     20  N   UNL     1      34.462  15.257  -2.853  1.00  0.00    -0.344 N
ATOM     21  N   UNL     1      32.845  12.223  -3.584  1.00  0.00    -0.246 NA
ATOM     22  C   UNL     1      34.315  13.906  -2.706  1.00  0.00     0.156 A
ATOM     23  C   UNL     1      33.540  11.350  -2.809  1.00  0.00     0.068 A
ATOM     24  N   UNL     1      35.056  13.092  -1.931  1.00  0.00    -0.235 NA
ATOM     25  C   UNL     1      34.619  11.801  -2.033  1.00  0.00     0.138 A
ATOM     26  H   UNL     1      35.162  15.804  -2.371  1.00  0.00     0.168 HD
BRANCH  23  27
ATOM     27  C   UNL     1      33.069   9.890  -2.824  1.00  0.00     0.038 C
ATOM     28  C   UNL     1      33.049   9.192  -1.460  1.00  0.00     0.017 C
ATOM     29  C   UNL     1      34.033   8.756  -2.494  1.00  0.00     0.017 C
ATOM     30  G   UNL     1      31.955   9.590  -3.831  1.00  0.00     0.000 C
ENDBRANCH  23  27
ENDBRANCH  14  17
ENDBRANCH   4  13
ENDBRANCH   1   4
BRANCH   1  31
ATOM     31  C   UNL     1      29.931  18.195  -4.846  1.00  0.00     0.092 C
BRANCH  31  32
ATOM     32  N   UNL     1      31.071  18.681  -5.619  1.00  0.00    -0.294 NA
ATOM     33  H   UNL     1      31.543  17.879  -6.029  1.00  0.00     0.124 HD
BRANCH  32  34
ATOM     34  C   UNL     1      32.040  19.319  -4.729  1.00  0.00     0.244 C
BRANCH  34  35
ATOM     35  O   UNL     1      33.312  19.428  -5.354  1.00  0.00    -0.365 OA
BRANCH  35  36
ATOM     36  C   UNL     1      33.362  18.870  -6.675  1.00  0.00     0.175 C
ATOM     37  G   UNL     1      34.486  17.834  -6.781  1.00  0.00     0.000 C
ENDBRANCH  35  36
ENDBRANCH  34  35
ENDBRANCH  32  34
ENDBRANCH  31  32
ENDBRANCH   1  31
TORSDOF 1
ENDMDL
MODEL 2
REMARK VINA RESULT:      -7.6      2.387      5.726
REMARK SMILES N#CC1CN(C(=O)[C@@H]2NC(=O)c3c[nH]c4ncc(nc34)[C@]3(CC3)COCNC[C@]23CC3)C1
REMARK SMILES IDX 29 1 30 2 31 3 8 4 6 5 1 6 2 7 3 8 4 9 32 10 5 11 7 12 9 13
REMARK SMILES IDX 10 14 11 15 12 17 13 18 20 19 14 20 19 21 15 22 18 23 16 24
REMARK SMILES IDX 17 25 21 27 22 28 23 29 28 31 27 32 26 34 25 35 24 36
REMARK H PARENT 9 16 14 26 27 33
REMARK Flexibility Score:  127.900
ROOT
ATOM      1  C   UNL     1      30.845  14.876  -2.867  1.00  0.00     0.012 C
ATOM      2  C   UNL     1      30.804  15.110  -1.363  1.00  0.00     0.012 C
ATOM      3  C   UNL     1      30.941  16.281  -2.292  1.00  0.00     0.012 C
ENDROOT
BRANCH   1   4
ATOM      4  C   UNL     1      32.141  14.250  -3.438  1.00  0.00     0.179 C
BRANCH   4   5
ATOM      5  C   UNL     1      32.218  14.410  -4.978  1.00  0.00     0.245 C
ATOM      6  N   UNL     1      33.355  19.585  -7.058  1.00  0.00    -0.198 NA
ATOM      7  C   UNL     1      33.534  18.506  -6.671  1.00  0.00     0.069 C
ATOM      8  C   UNL     1      33.755  17.167  -6.185  1.00  0.00     0.131 C
ATOM      9  C   UNL     1      32.853  16.081  -6.797  1.00  0.00     0.140 C
ATOM     10  C   UNL     1      33.109  16.846  -4.823  1.00  0.00     0.140 C
ATOM     11  N   UNL     1      32.630  15.629  -5.439  1.00  0.00    -0.338 N
ATOM     12  O   UNL     1      31.961  13.490  -5.758  1.00  0.00    -0.272 OA
ENDBRANCH   4   5
BRANCH   4  13
ATOM     13  N   UNL     1      32.184  12.831  -3.134  1.00  0.00    -0.340 N
ATOM     14  C   UNL     1      33.325  12.103  -2.928  1.00  0.00     0.255 C
ATOM     15  O   UNL     1      34.441  12.602  -2.840  1.00  0.00    -0.269 OA
ATOM     16  H   UNL     1      31.328  12.293  -3.194  1.00  0.00     0.164 HD
BRANCH  14  17
ATOM     17  C   UNL     1      33.073  10.664  -2.891  1.00  0.00     0.085 A
ATOM     18  C   UNL     1      33.847   9.699  -2.263  1.00  0.00     0.100 A
ATOM     19  C   UNL     1      32.015   9.958  -3.533  1.00  0.00     0.120 A
ATOM     20  N   UNL     1      33.312   8.460  -2.539  1.00  0.00    -0.344 N
ATOM     21  N   UNL     1      30.976  10.437  -4.270  1.00  0.00    -0.246 NA
ATOM     22  C   UNL     1      32.205   8.602  -3.330  1.00  0.00     0.156 A
ATOM     23  C   UNL     1      30.154   9.492  -4.793  1.00  0.00     0.068 A
ATOM     24  N   UNL     1      31.440   7.614  -3.833  1.00  0.00    -0.235 NA
ATOM     25  C   UNL     1      30.417   8.130  -4.577  1.00  0.00     0.138 A
ATOM     26  H   UNL     1      33.677   7.569  -2.234  1.00  0.00     0.168 HD
BRANCH  23  27
ATOM     27  C   UNL     1      28.945   9.996  -5.591  1.00  0.00     0.038 C
ATOM     28  C   UNL     1      28.734  11.514  -5.576  1.00  0.00     0.017 C
ATOM     29  C   UNL     1      27.752  10.629  -4.883  1.00  0.00     0.017 C
ATOM     30  G   UNL     1      28.662   9.218  -6.880  1.00  0.00     0.000 C
ENDBRANCH  23  27
ENDBRANCH  14  17
ENDBRANCH   4  13
ENDBRANCH   1   4
BRANCH   1  31
ATOM     31  C   UNL     1      29.562  14.408  -3.549  1.00  0.00     0.092 C
BRANCH  31  32
ATOM     32  N   UNL     1      28.747  15.426  -4.208  1.00  0.00    -0.294 NA
ATOM     33  H   UNL     1      27.822  15.415  -3.788  1.00  0.00     0.124 HD
BRANCH  32  34
ATOM     34  C   UNL     1      28.564  15.081  -5.617  1.00  0.00     0.244 C
BRANCH  34  35
ATOM     35  O   UNL     1      29.362  15.910  -6.453  1.00  0.00    -0.365 OA
BRANCH  35  36
ATOM     36  C   UNL     1      28.860  17.246  -6.597  1.00  0.00     0.175 C
ATOM     37  G   UNL     1      29.867  18.263  -6.051  1.00  0.00     0.000 C
ENDBRANCH  35  36
ENDBRANCH  34  35
ENDBRANCH  32  34
ENDBRANCH  31  32
ENDBRANCH   1  31
TORSDOF 1
ENDMDL
MODEL 3
REMARK VINA RESULT:      -7.6      2.397      8.115
REMARK SMILES N#CC1CN(C(=O)[C@@H]2NC(=O)c3c[nH]c4ncc(nc34)[C@]3(CC3)COCNC[C@]23CC3)C1
REMARK SMILES IDX 29 1 30 2 31 3 8 4 6 5 1 6 2 7 3 8 4 9 32 10 5 11 7 12 9 13
REMARK SMILES IDX 10 14 11 15 12 17 13 18 20 19 14 20 19 21 15 22 18 23 16 24
REMARK SMILES IDX 17 25 21 27 22 28 23 29 28 31 27 32 26 34 25 35 24 36
REMARK H PARENT 9 16 14 26 27 33
REMARK Flexibility Score:  127.900
ROOT
ATOM      1  C   UNL     1      30.714  14.547  -3.171  1.00  0.00     0.012 C
ATOM      2  C   UNL     1      30.911  14.906  -1.705  1.00  0.00     0.012 C
ATOM      3  C   UNL     1      30.128  15.828  -2.593  1.00  0.00     0.012 C
ENDROOT
BRANCH   1   4
ATOM      4  C   UNL     1      31.950  14.682  -4.094  1.00  0.00     0.179 C
BRANCH   4   5
ATOM      5  C   UNL     1      33.262  14.366  -3.333  1.00  0.00     0.245 C
ATOM      6  N   UNL     1      34.151   8.992  -1.680  1.00  0.00    -0.198 NA
ATOM      7  C   UNL     1      34.187   9.946  -2.340  1.00  0.00     0.069 C
ATOM      8  C   UNL     1      34.226  11.132  -3.159  1.00  0.00     0.131 C
ATOM      9  C   UNL     1      34.651  12.423  -2.438  1.00  0.00     0.140 C
ATOM     10  C   UNL     1      32.862  11.801  -3.416  1.00  0.00     0.140 C
ATOM     11  N   UNL     1      33.510  13.047  -3.076  1.00  0.00    -0.338 N
ATOM     12  O   UNL     1      34.068  15.240  -3.003  1.00  0.00    -0.272 OA
ENDBRANCH   4   5
BRANCH   4  13
ATOM     13  N   UNL     1      32.044  16.037  -4.604  1.00  0.00    -0.340 N
ATOM     14  C   UNL     1      32.571  16.389  -5.818  1.00  0.00     0.255 C
ATOM     15  O   UNL     1      32.899  15.576  -6.675  1.00  0.00    -0.269 OA
ATOM     16  H   UNL     1      31.823  16.809  -3.985  1.00  0.00     0.164 HD
BRANCH  14  17
ATOM     17  C   UNL     1      32.760  17.831  -5.951  1.00  0.00     0.085 A
ATOM     18  C   UNL     1      33.962  18.522  -5.892  1.00  0.00     0.100 A
ATOM     19  C   UNL     1      31.749  18.821  -6.115  1.00  0.00     0.120 A
ATOM     20  N   UNL     1      33.697  19.872  -5.978  1.00  0.00    -0.344 N
ATOM     21  N   UNL     1      30.403  18.671  -6.241  1.00  0.00    -0.246 NA
ATOM     22  C   UNL     1      32.349  20.069  -6.093  1.00  0.00     0.156 A
ATOM     23  C   UNL     1      29.698  19.829  -6.335  1.00  0.00     0.068 A
ATOM     24  N   UNL     1      31.709  21.253  -6.163  1.00  0.00    -0.235 NA
ATOM     25  C   UNL     1      30.361  21.065  -6.275  1.00  0.00     0.138 A
ATOM     26  H   UNL     1      34.376  20.619  -5.940  1.00  0.00     0.168 HD
BRANCH  23  27
ATOM     27  C   UNL     1      28.182  19.698  -6.525  1.00  0.00     0.038 C
ATOM     28  C   UNL     1      27.648  20.154  -7.887  1.00  0.00     0.017 C
ATOM     29  C   UNL     1      27.303  20.936  -6.663  1.00  0.00     0.017 C
ATOM     30  G   UNL     1      27.559  18.469  -5.855  1.00  0.00     0.000 C
ENDBRANCH  23  27
ENDBRANCH  14  17
ENDBRANCH   4  13
ENDBRANCH   1   4
BRANCH   1  31
ATOM     31  C   UNL     1      29.806  13.364  -3.497  1.00  0.00     0.092 C
BRANCH  31  32
ATOM     32  N   UNL     1      29.662  13.001  -4.906  1.00  0.00    -0.294 NA
ATOM     33  H   UNL     1      29.140  13.739  -5.373  1.00  0.00     0.124 HD
BRANCH  32  34
ATOM     34  C   UNL     1      28.857  11.787  -5.027  1.00  0.00     0.244 C
BRANCH  34  35
ATOM     35  O   UNL     1      29.187  10.853  -4.007  1.00  0.00    -0.365 OA
BRANCH  35  36
ATOM     36  C   UNL     1      29.919   9.712  -4.477  1.00  0.00     0.175 C
ATOM     37  G   UNL     1      29.246   9.112  -5.716  1.00  0.00     0.000 C
ENDBRANCH  35  36
ENDBRANCH  34  35
ENDBRANCH  32  34
ENDBRANCH  31  32
ENDBRANCH   1  31
TORSDOF 1
ENDMDL
MODEL 4
REMARK VINA RESULT:      -7.6      2.487      5.632
REMARK SMILES N#CC1CN(C(=O)[C@@H]2NC(=O)c3c[nH]c4ncc(nc34)[C@]3(CC3)COCNC[C@]23CC3)C1
REMARK SMILES IDX 29 1 30 2 31 3 8 4 6 5 1 6 2 7 3 8 4 9 32 10 5 11 7 12 9 13
REMARK SMILES IDX 10 14 11 15 12 17 13 18 20 19 14 20 19 21 15 22 18 23 16 24
REMARK SMILES IDX 17 25 21 27 22 28 23 29 28 31 27 32 26 34 25 35 24 36
REMARK H PARENT 9 16 14 26 27 33
REMARK Flexibility Score:  127.900
ROOT
ATOM      1  C   UNL     1      30.965  15.154  -2.992  1.00  0.00     0.012 C
ATOM      2  C   UNL     1      30.780  15.146  -1.481  1.00  0.00     0.012 C
ATOM      3  C   UNL     1      31.093  16.436  -2.182  1.00  0.00     0.012 C
ENDROOT
BRANCH   1   4
ATOM      4  C   UNL     1      32.268  14.522  -3.538  1.00  0.00     0.179 C
BRANCH   4   5
ATOM      5  C   UNL     1      32.383  14.693  -5.074  1.00  0.00     0.245 C
ATOM      6  N   UNL     1      33.648  19.866  -7.086  1.00  0.00    -0.198 NA
ATOM      7  C   UNL     1      33.801  18.781  -6.704  1.00  0.00     0.069 C
ATOM      8  C   UNL     1      33.990  17.435  -6.223  1.00  0.00     0.131 C
ATOM      9  C   UNL     1      33.085  16.368  -6.865  1.00  0.00     0.140 C
ATOM     10  C   UNL     1      33.309  17.113  -4.879  1.00  0.00     0.140 C
ATOM     11  N   UNL     1      32.824  15.908  -5.515  1.00  0.00    -0.338 N
ATOM     12  O   UNL     1      32.129  13.783  -5.867  1.00  0.00    -0.272 OA
ENDBRANCH   4   5
BRANCH   4  13
ATOM     13  N   UNL     1      32.294  13.101  -3.243  1.00  0.00    -0.340 N
ATOM     14  C   UNL     1      33.416  12.377  -2.942  1.00  0.00     0.255 C
ATOM     15  O   UNL     1      34.516  12.882  -2.750  1.00  0.00    -0.269 OA
ATOM     16  H   UNL     1      31.450  12.558  -3.385  1.00  0.00     0.164 HD
BRANCH  14  17
ATOM     17  C   UNL     1      33.171  10.937  -2.940  1.00  0.00     0.085 A
ATOM     18  C   UNL     1      33.997   9.953  -2.417  1.00  0.00     0.100 A
ATOM     19  C   UNL     1      32.065  10.251  -3.519  1.00  0.00     0.120 A
ATOM     20  N   UNL     1      33.444   8.722  -2.696  1.00  0.00    -0.344 N
ATOM     21  N   UNL     1      30.968  10.752  -4.148  1.00  0.00    -0.246 NA
ATOM     22  C   UNL     1      32.275   8.888  -3.386  1.00  0.00     0.156 A
ATOM     23  C   UNL     1      30.107   9.823  -4.638  1.00  0.00     0.068 A
ATOM     24  N   UNL     1      31.473   7.916  -3.862  1.00  0.00    -0.235 NA
ATOM     25  C   UNL     1      30.391   8.455  -4.498  1.00  0.00     0.138 A
ATOM     26  H   UNL     1      33.835   7.822  -2.456  1.00  0.00     0.168 HD
BRANCH  23  27
ATOM     27  C   UNL     1      28.835  10.351  -5.313  1.00  0.00     0.038 C
ATOM     28  C   UNL     1      27.570   9.520  -5.074  1.00  0.00     0.017 C
ATOM     29  C   UNL     1      28.169   9.571  -6.441  1.00  0.00     0.017 C
ATOM     30  G   UNL     1      28.725  11.879  -5.359  1.00  0.00     0.000 C
ENDBRANCH  23  27
ENDBRANCH  14  17
ENDBRANCH   4  13
ENDBRANCH   1   4
BRANCH   1  31
ATOM     31  C   UNL     1      29.732  14.911  -3.860  1.00  0.00     0.092 C
BRANCH  31  32
ATOM     32  N   UNL     1      28.887  16.065  -4.158  1.00  0.00    -0.294 NA
ATOM     33  H   UNL     1      28.016  15.727  -4.558  1.00  0.00     0.124 HD
BRANCH  32  34
ATOM     34  C   UNL     1      29.519  16.892  -5.184  1.00  0.00     0.244 C
BRANCH  34  35
ATOM     35  O   UNL     1      29.182  18.263  -5.014  1.00  0.00    -0.365 OA
BRANCH  35  36
ATOM     36  C   UNL     1      30.312  19.146  -5.017  1.00  0.00     0.175 C
ATOM     37  G   UNL     1      30.163  20.209  -6.111  1.00  0.00     0.000 C
ENDBRANCH  35  36
ENDBRANCH  34  35
ENDBRANCH  32  34
ENDBRANCH  31  32
ENDBRANCH   1  31
TORSDOF 1
ENDMDL
MODEL 5
REMARK VINA RESULT:      -7.6      1.980      5.704
REMARK SMILES N#CC1CN(C(=O)[C@@H]2NC(=O)c3c[nH]c4ncc(nc34)[C@]3(CC3)COCNC[C@]23CC3)C1
REMARK SMILES IDX 29 1 30 2 31 3 8 4 6 5 1 6 2 7 3 8 4 9 32 10 5 11 7 12 9 13
REMARK SMILES IDX 10 14 11 15 12 17 13 18 20 19 14 20 19 21 15 22 18 23 16 24
REMARK SMILES IDX 17 25 21 27 22 28 23 29 28 31 27 32 26 34 25 35 24 36
REMARK H PARENT 9 16 14 26 27 33
REMARK Flexibility Score:  127.900
ROOT
ATOM      1  C   UNL     1      28.420  15.189  -5.215  1.00  0.00     0.012 C
ATOM      2  C   UNL     1      27.096  15.387  -4.488  1.00  0.00     0.012 C
ATOM      3  C   UNL     1      27.253  15.894  -5.892  1.00  0.00     0.012 C
ENDROOT
BRANCH   1   4
ATOM      4  C   UNL     1      29.608  16.066  -4.748  1.00  0.00     0.179 C
BRANCH   4   5
ATOM      5  C   UNL     1      30.184  16.908  -5.914  1.00  0.00     0.245 C
ATOM      6  N   UNL     1      32.052  22.154  -4.734  1.00  0.00    -0.198 NA
ATOM      7  C   UNL     1      32.072  21.007  -4.906  1.00  0.00     0.069 C
ATOM      8  C   UNL     1      32.092  19.580  -5.115  1.00  0.00     0.131 C
ATOM      9  C   UNL     1      31.413  19.089  -6.405  1.00  0.00     0.140 C
ATOM     10  C   UNL     1      31.032  18.784  -4.330  1.00  0.00     0.140 C
ATOM     11  N   UNL     1      30.751  18.104  -5.573  1.00  0.00    -0.338 N
ATOM     12  O   UNL     1      30.173  16.521  -7.085  1.00  0.00    -0.272 OA
ENDBRANCH   4   5
BRANCH   4  13
ATOM     13  N   UNL     1      30.674  15.225  -4.234  1.00  0.00    -0.340 N
ATOM     14  C   UNL     1      31.285  15.381  -3.020  1.00  0.00     0.255 C
ATOM     15  O   UNL     1      30.902  16.171  -2.164  1.00  0.00    -0.269 OA
ATOM     16  H   UNL     1      31.098  14.543  -4.852  1.00  0.00     0.164 HD
BRANCH  14  17
ATOM     17  C   UNL     1      32.481  14.552  -2.883  1.00  0.00     0.085 A
ATOM     18  C   UNL     1      33.756  14.980  -2.541  1.00  0.00     0.100 A
ATOM     19  C   UNL     1      32.590  13.152  -3.123  1.00  0.00     0.120 A
ATOM     20  N   UNL     1      34.612  13.902  -2.605  1.00  0.00    -0.344 N
ATOM     21  N   UNL     1      31.629  12.256  -3.473  1.00  0.00    -0.246 NA
ATOM     22  C   UNL     1      33.918  12.785  -2.979  1.00  0.00     0.156 A
ATOM     23  C   UNL     1      32.068  10.987  -3.678  1.00  0.00     0.068 A
ATOM     24  N   UNL     1      34.421  11.552  -3.184  1.00  0.00    -0.235 NA
ATOM     25  C   UNL     1      33.432  10.683  -3.547  1.00  0.00     0.138 A
ATOM     26  H   UNL     1      35.606  13.916  -2.430  1.00  0.00     0.168 HD
BRANCH  23  27
ATOM     27  C   UNL     1      31.004   9.939  -4.029  1.00  0.00     0.038 C
ATOM     28  C   UNL     1      30.261  10.173  -5.349  1.00  0.00     0.017 C
ATOM     29  C   UNL     1      29.525  10.308  -4.057  1.00  0.00     0.017 C
ATOM     30  G   UNL     1      31.360   8.506  -3.618  1.00  0.00     0.000 C
ENDBRANCH  23  27
ENDBRANCH  14  17
ENDBRANCH   4  13
ENDBRANCH   1   4
BRANCH   1  31
ATOM     31  C   UNL     1      28.802  13.768  -5.621  1.00  0.00     0.092 C
BRANCH  31  32
ATOM     32  N   UNL     1      28.399  13.324  -6.954  1.00  0.00    -0.294 NA
ATOM     33  H   UNL     1      28.072  14.134  -7.474  1.00  0.00     0.124 HD
BRANCH  32  34
ATOM     34  C   UNL     1      27.260  12.413  -6.851  1.00  0.00     0.244 C
BRANCH  34  35
ATOM     35  O   UNL     1      26.392  12.555  -7.968  1.00  0.00    -0.365 OA
BRANCH  35  36
ATOM     36  C   UNL     1      26.133  11.328  -8.664  1.00  0.00     0.175 C
ATOM     37  G   UNL     1      26.767  10.145  -7.927  1.00  0.00     0.000 C
ENDBRANCH  35  36
ENDBRANCH  34  35
ENDBRANCH  32  34
ENDBRANCH  31  32
ENDBRANCH   1  31
TORSDOF 1
ENDMDL
MODEL 6
REMARK VINA RESULT:      -7.5      1.437      1.625
REMARK SMILES N#CC1CN(C(=O)[C@@H]2NC(=O)c3c[nH]c4ncc(nc34)[C@]3(CC3)COCNC[C@]23CC3)C1
REMARK SMILES IDX 29 1 30 2 31 3 8 4 6 5 1 6 2 7 3 8 4 9 32 10 5 11 7 12 9 13
REMARK SMILES IDX 10 14 11 15 12 17 13 18 20 19 14 20 19 21 15 22 18 23 16 24
REMARK SMILES IDX 17 25 21 27 22 28 23 29 28 31 27 32 26 34 25 35 24 36
REMARK H PARENT 9 16 14 26 27 33
REMARK Flexibility Score:  127.900
ROOT
ATOM      1  C   UNL     1      30.216  18.127  -6.049  1.00  0.00     0.012 C
ATOM      2  C   UNL     1      29.089  18.760  -6.853  1.00  0.00     0.012 C
ATOM      3  C   UNL     1      29.191  19.031  -5.380  1.00  0.00     0.012 C
ENDROOT
BRANCH   1   4
ATOM      4  C   UNL     1      30.109  16.606  -5.779  1.00  0.00     0.179 C
BRANCH   4   5
ATOM      5  C   UNL     1      28.909  16.277  -4.855  1.00  0.00     0.245 C
ATOM      6  N   UNL     1      24.295  13.931  -7.225  1.00  0.00    -0.198 NA
ATOM      7  C   UNL     1      25.319  14.008  -6.684  1.00  0.00     0.069 C
ATOM      8  C   UNL     1      26.593  14.107  -6.018  1.00  0.00     0.131 C
ATOM      9  C   UNL     1      26.651  15.091  -4.836  1.00  0.00     0.140 C
ATOM     10  C   UNL     1      27.639  14.992  -6.723  1.00  0.00     0.140 C
ATOM     11  N   UNL     1      27.877  15.588  -5.427  1.00  0.00    -0.338 N
ATOM     12  O   UNL     1      28.885  16.579  -3.660  1.00  0.00    -0.272 OA
ENDBRANCH   4   5
BRANCH   4  13
ATOM     13  N   UNL     1      31.316  16.130  -5.130  1.00  0.00    -0.340 N
ATOM     14  C   UNL     1      31.576  14.826  -4.806  1.00  0.00     0.255 C
ATOM     15  O   UNL     1      30.870  13.887  -5.156  1.00  0.00    -0.269 OA
ATOM     16  H   UNL     1      31.977  16.809  -4.769  1.00  0.00     0.164 HD
BRANCH  14  17
ATOM     17  C   UNL     1      32.747  14.684  -3.943  1.00  0.00     0.085 A
ATOM     18  C   UNL     1      33.623  15.688  -3.557  1.00  0.00     0.100 A
ATOM     19  C   UNL     1      33.253  13.483  -3.368  1.00  0.00     0.120 A
ATOM     20  N   UNL     1      34.637  15.123  -2.815  1.00  0.00    -0.344 N
ATOM     21  N   UNL     1      32.758  12.217  -3.431  1.00  0.00    -0.246 NA
ATOM     22  C   UNL     1      34.435  13.775  -2.709  1.00  0.00     0.156 A
ATOM     23  C   UNL     1      33.508  11.271  -2.810  1.00  0.00     0.068 A
ATOM     24  N   UNL     1      35.235  12.885  -2.091  1.00  0.00    -0.235 NA
ATOM     25  C   UNL     1      34.714  11.625  -2.185  1.00  0.00     0.138 A
ATOM     26  H   UNL     1      35.431  15.608  -2.419  1.00  0.00     0.168 HD
BRANCH  23  27
ATOM     27  C   UNL     1      32.957   9.839  -2.820  1.00  0.00     0.038 C
ATOM     28  C   UNL     1      32.935   9.134  -1.460  1.00  0.00     0.017 C
ATOM     29  C   UNL     1      33.865   8.651  -2.524  1.00  0.00     0.017 C
ATOM     30  G   UNL     1      31.800   9.608  -3.798  1.00  0.00     0.000 C
ENDBRANCH  23  27
ENDBRANCH  14  17
ENDBRANCH   4  13
ENDBRANCH   1   4
BRANCH   1  31
ATOM     31  C   UNL     1      31.636  18.627  -6.300  1.00  0.00     0.092 C
BRANCH  31  32
ATOM     32  N   UNL     1      32.426  19.008  -5.132  1.00  0.00    -0.294 NA
ATOM     33  H   UNL     1      32.011  18.575  -4.311  1.00  0.00     0.124 HD
BRANCH  32  34
ATOM     34  C   UNL     1      32.341  20.452  -4.923  1.00  0.00     0.244 C
BRANCH  34  35
ATOM     35  O   UNL     1      32.986  21.159  -5.975  1.00  0.00    -0.365 OA
BRANCH  35  36
ATOM     36  C   UNL     1      33.831  22.228  -5.527  1.00  0.00     0.175 C
ATOM     37  G   UNL     1      35.175  22.198  -6.262  1.00  0.00     0.000 C
ENDBRANCH  35  36
ENDBRANCH  34  35
ENDBRANCH  32  34
ENDBRANCH  31  32
ENDBRANCH   1  31
TORSDOF 1
ENDMDL
MODEL 7
REMARK VINA RESULT:      -7.4      3.391      6.104
REMARK SMILES N#CC1CN(C(=O)[C@@H]2NC(=O)c3c[nH]c4ncc(nc34)[C@]3(CC3)COCNC[C@]23CC3)C1
REMARK SMILES IDX 29 1 30 2 31 3 8 4 6 5 1 6 2 7 3 8 4 9 32 10 5 11 7 12 9 13
REMARK SMILES IDX 10 14 11 15 12 17 13 18 20 19 14 20 19 21 15 22 18 23 16 24
REMARK SMILES IDX 17 25 21 27 22 28 23 29 28 31 27 32 26 34 25 35 24 36
REMARK H PARENT 9 16 14 26 27 33
REMARK Flexibility Score:  127.900
ROOT
ATOM      1  C   UNL     1      32.042  14.495  -3.774  1.00  0.00     0.012 C
ATOM      2  C   UNL     1      32.899  15.486  -4.550  1.00  0.00     0.012 C
ATOM      3  C   UNL     1      31.851  15.995  -3.604  1.00  0.00     0.012 C
ENDROOT
BRANCH   1   4
ATOM      4  C   UNL     1      30.966  13.726  -4.579  1.00  0.00     0.179 C
BRANCH   4   5
ATOM      5  C   UNL     1      29.538  14.046  -4.067  1.00  0.00     0.245 C
ATOM      6  N   UNL     1      26.083  16.999  -7.494  1.00  0.00    -0.198 NA
ATOM      7  C   UNL     1      26.590  16.087  -6.986  1.00  0.00     0.069 C
ATOM      8  C   UNL     1      27.226  14.957  -6.356  1.00  0.00     0.131 C
ATOM      9  C   UNL     1      27.298  15.006  -4.820  1.00  0.00     0.140 C
ATOM     10  C   UNL     1      28.766  14.977  -6.366  1.00  0.00     0.140 C
ATOM     11  N   UNL     1      28.691  14.631  -4.965  1.00  0.00    -0.338 N
ATOM     12  O   UNL     1      29.160  13.763  -2.928  1.00  0.00    -0.272 OA
ENDBRANCH   4   5
BRANCH   4  13
ATOM     13  N   UNL     1      31.176  12.296  -4.451  1.00  0.00    -0.340 N
ATOM     14  C   UNL     1      30.304  11.329  -4.872  1.00  0.00     0.255 C
ATOM     15  O   UNL     1      29.300  11.565  -5.535  1.00  0.00    -0.269 OA
ATOM     16  H   UNL     1      31.962  11.965  -3.903  1.00  0.00     0.164 HD
BRANCH  14  17
ATOM     17  C   UNL     1      30.664   9.999  -4.389  1.00  0.00     0.085 A
ATOM     18  C   UNL     1      31.648   9.688  -3.461  1.00  0.00     0.100 A
ATOM     19  C   UNL     1      30.117   8.752  -4.810  1.00  0.00     0.120 A
ATOM     20  N   UNL     1      31.725   8.317  -3.348  1.00  0.00    -0.344 N
ATOM     21  N   UNL     1      29.116   8.501  -5.696  1.00  0.00    -0.246 NA
ATOM     22  C   UNL     1      30.811   7.733  -4.180  1.00  0.00     0.156 A
ATOM     23  C   UNL     1      28.858   7.186  -5.920  1.00  0.00     0.068 A
ATOM     24  N   UNL     1      30.619   6.413  -4.370  1.00  0.00    -0.235 NA
ATOM     25  C   UNL     1      29.617   6.198  -5.274  1.00  0.00     0.138 A
ATOM     26  H   UNL     1      32.367   7.800  -2.763  1.00  0.00     0.168 HD
BRANCH  23  27
ATOM     27  C   UNL     1      27.704   6.865  -6.878  1.00  0.00     0.038 C
ATOM     28  C   UNL     1      28.110   6.605  -8.333  1.00  0.00     0.017 C
ATOM     29  C   UNL     1      27.327   7.830  -7.996  1.00  0.00     0.017 C
ATOM     30  G   UNL     1      26.574   6.034  -6.260  1.00  0.00     0.000 C
ENDBRANCH  23  27
ENDBRANCH  14  17
ENDBRANCH   4  13
ENDBRANCH   1   4
BRANCH   1  31
ATOM     31  C   UNL     1      32.720  13.675  -2.679  1.00  0.00     0.092 C
BRANCH  31  32
ATOM     32  N   UNL     1      33.730  12.706  -3.098  1.00  0.00    -0.294 NA
ATOM     33  H   UNL     1      33.403  11.777  -2.846  1.00  0.00     0.124 HD
BRANCH  32  34
ATOM     34  C   UNL     1      34.968  12.924  -2.353  1.00  0.00     0.244 C
BRANCH  34  35
ATOM     35  O   UNL     1      35.578  11.688  -2.005  1.00  0.00    -0.365 OA
BRANCH  35  36
ATOM     36  C   UNL     1      34.840  10.534  -2.431  1.00  0.00     0.175 C
ATOM     37  G   UNL     1      34.813   9.473  -1.326  1.00  0.00     0.000 C
ENDBRANCH  35  36
ENDBRANCH  34  35
ENDBRANCH  32  34
ENDBRANCH  31  32
ENDBRANCH   1  31
TORSDOF 1
ENDMDL
MODEL 8
REMARK VINA RESULT:      -7.4      2.169      8.029
REMARK SMILES N#CC1CN(C(=O)[C@@H]2NC(=O)c3c[nH]c4ncc(nc34)[C@]3(CC3)COCNC[C@]23CC3)C1
REMARK SMILES IDX 29 1 30 2 31 3 8 4 6 5 1 6 2 7 3 8 4 9 32 10 5 11 7 12 9 13
REMARK SMILES IDX 10 14 11 15 12 17 13 18 20 19 14 20 19 21 15 22 18 23 16 24
REMARK SMILES IDX 17 25 21 27 22 28 23 29 28 31 27 32 26 34 25 35 24 36
REMARK H PARENT 9 16 14 26 27 33
REMARK Flexibility Score:  127.900
ROOT
ATOM      1  C   UNL     1      29.152  15.007  -5.025  1.00  0.00     0.012 C
ATOM      2  C   UNL     1      28.293  16.257  -4.880  1.00  0.00     0.012 C
ATOM      3  C   UNL     1      28.437  15.609  -6.226  1.00  0.00     0.012 C
ENDROOT
BRANCH   1   4
ATOM      4  C   UNL     1      30.685  15.202  -4.936  1.00  0.00     0.179 C
BRANCH   4   5
ATOM      5  C   UNL     1      31.208  14.940  -3.501  1.00  0.00     0.245 C
ATOM      6  N   UNL     1      34.344  10.270  -2.627  1.00  0.00    -0.198 NA
ATOM      7  C   UNL     1      34.084  11.377  -2.856  1.00  0.00     0.069 C
ATOM      8  C   UNL     1      33.759  12.752  -3.146  1.00  0.00     0.131 C
ATOM      9  C   UNL     1      32.768  13.418  -2.176  1.00  0.00     0.140 C
ATOM     10  C   UNL     1      32.713  12.961  -4.257  1.00  0.00     0.140 C
ATOM     11  N   UNL     1      32.071  13.891  -3.355  1.00  0.00    -0.338 N
ATOM     12  O   UNL     1      30.903  15.650  -2.540  1.00  0.00    -0.272 OA
ENDBRANCH   4   5
BRANCH   4  13
ATOM     13  N   UNL     1      31.035  16.563  -5.298  1.00  0.00    -0.340 N
ATOM     14  C   UNL     1      32.129  16.927  -6.035  1.00  0.00     0.255 C
ATOM     15  O   UNL     1      32.867  16.124  -6.594  1.00  0.00    -0.269 OA
ATOM     16  H   UNL     1      30.515  17.328  -4.883  1.00  0.00     0.164 HD
BRANCH  14  17
ATOM     17  C   UNL     1      32.357  18.370  -6.026  1.00  0.00     0.085 A
ATOM     18  C   UNL     1      33.561  19.022  -5.798  1.00  0.00     0.100 A
ATOM     19  C   UNL     1      31.385  19.397  -6.197  1.00  0.00     0.120 A
ATOM     20  N   UNL     1      33.330  20.380  -5.791  1.00  0.00    -0.344 N
ATOM     21  N   UNL     1      30.054  19.294  -6.459  1.00  0.00    -0.246 NA
ATOM     22  C   UNL     1      32.003  20.623  -6.013  1.00  0.00     0.156 A
ATOM     23  C   UNL     1      29.383  20.474  -6.518  1.00  0.00     0.068 A
ATOM     24  N   UNL     1      31.395  21.824  -6.040  1.00  0.00    -0.235 NA
ATOM     25  C   UNL     1      30.060  21.682  -6.292  1.00  0.00     0.138 A
ATOM     26  H   UNL     1      34.017  21.103  -5.627  1.00  0.00     0.168 HD
BRANCH  23  27
ATOM     27  C   UNL     1      27.889  20.399  -6.858  1.00  0.00     0.038 C
ATOM     28  C   UNL     1      27.472  21.111  -8.150  1.00  0.00     0.017 C
ATOM     29  C   UNL     1      27.020  21.652  -6.833  1.00  0.00     0.017 C
ATOM     30  G   UNL     1      27.216  19.074  -6.487  1.00  0.00     0.000 C
ENDBRANCH  23  27
ENDBRANCH  14  17
ENDBRANCH   4  13
ENDBRANCH   1   4
BRANCH   1  31
ATOM     31  C   UNL     1      28.639  13.716  -4.391  1.00  0.00     0.092 C
BRANCH  31  32
ATOM     32  N   UNL     1      27.639  12.957  -5.138  1.00  0.00    -0.294 NA
ATOM     33  H   UNL     1      26.863  12.751  -4.513  1.00  0.00     0.124 HD
BRANCH  32  34
ATOM     34  C   UNL     1      28.194  11.668  -5.545  1.00  0.00     0.244 C
BRANCH  34  35
ATOM     35  O   UNL     1      29.416  11.403  -4.869  1.00  0.00    -0.365 OA
BRANCH  35  36
ATOM     36  C   UNL     1      29.775  10.015  -4.837  1.00  0.00     0.175 C
ATOM     37  G   UNL     1      30.798   9.747  -3.728  1.00  0.00     0.000 C
ENDBRANCH  35  36
ENDBRANCH  34  35
ENDBRANCH  32  34
ENDBRANCH  31  32
ENDBRANCH   1  31
TORSDOF 1
ENDMDL
MODEL 9
REMARK VINA RESULT:      -7.4      2.208      7.929
REMARK SMILES N#CC1CN(C(=O)[C@@H]2NC(=O)c3c[nH]c4ncc(nc34)[C@]3(CC3)COCNC[C@]23CC3)C1
REMARK SMILES IDX 29 1 30 2 31 3 8 4 6 5 1 6 2 7 3 8 4 9 32 10 5 11 7 12 9 13
REMARK SMILES IDX 10 14 11 15 12 17 13 18 20 19 14 20 19 21 15 22 18 23 16 24
REMARK SMILES IDX 17 25 21 27 22 28 23 29 28 31 27 32 26 34 25 35 24 36
REMARK H PARENT 9 16 14 26 27 33
REMARK Flexibility Score:  127.900
ROOT
ATOM      1  C   UNL     1      31.067  14.554  -2.988  1.00  0.00     0.012 C
ATOM      2  C   UNL     1      31.311  14.633  -1.487  1.00  0.00     0.012 C
ATOM      3  C   UNL     1      30.601  15.758  -2.182  1.00  0.00     0.012 C
ENDROOT
BRANCH   1   4
ATOM      4  C   UNL     1      32.300  14.744  -3.904  1.00  0.00     0.179 C
BRANCH   4   5
ATOM      5  C   UNL     1      33.621  14.477  -3.141  1.00  0.00     0.245 C
ATOM      6  N   UNL     1      34.588   9.188  -1.270  1.00  0.00    -0.198 NA
ATOM      7  C   UNL     1      34.608  10.114  -1.969  1.00  0.00     0.069 C
ATOM      8  C   UNL     1      34.627  11.265  -2.838  1.00  0.00     0.131 C
ATOM      9  C   UNL     1      35.041  12.590  -2.176  1.00  0.00     0.140 C
ATOM     10  C   UNL     1      33.252  11.905  -3.113  1.00  0.00     0.140 C
ATOM     11  N   UNL     1      33.887  13.173  -2.830  1.00  0.00    -0.338 N
ATOM     12  O   UNL     1      34.419  15.373  -2.854  1.00  0.00    -0.272 OA
ENDBRANCH   4   5
BRANCH   4  13
ATOM     13  N   UNL     1      32.341  16.106  -4.406  1.00  0.00    -0.340 N
ATOM     14  C   UNL     1      32.573  16.461  -5.707  1.00  0.00     0.255 C
ATOM     15  O   UNL     1      32.636  15.654  -6.629  1.00  0.00    -0.269 OA
ATOM     16  H   UNL     1      32.321  16.871  -3.742  1.00  0.00     0.164 HD
BRANCH  14  17
ATOM     17  C   UNL     1      32.804  17.894  -5.866  1.00  0.00     0.085 A
ATOM     18  C   UNL     1      34.023  18.554  -5.801  1.00  0.00     0.100 A
ATOM     19  C   UNL     1      31.822  18.907  -6.066  1.00  0.00     0.120 A
ATOM     20  N   UNL     1      33.795  19.908  -5.917  1.00  0.00    -0.344 N
ATOM     21  N   UNL     1      30.475  18.791  -6.210  1.00  0.00    -0.246 NA
ATOM     22  C   UNL     1      32.455  20.139  -6.059  1.00  0.00     0.156 A
ATOM     23  C   UNL     1      29.803  19.965  -6.338  1.00  0.00     0.068 A
ATOM     24  N   UNL     1      31.849  21.338  -6.162  1.00  0.00    -0.235 NA
ATOM     25  C   UNL     1      30.497  21.183  -6.292  1.00  0.00     0.138 A
ATOM     26  H   UNL     1      34.493  20.637  -5.883  1.00  0.00     0.168 HD
BRANCH  23  27
ATOM     27  C   UNL     1      28.287  19.870  -6.550  1.00  0.00     0.038 C
ATOM     28  C   UNL     1      27.580  18.764  -5.760  1.00  0.00     0.017 C
ATOM     29  C   UNL     1      27.670  18.662  -7.247  1.00  0.00     0.017 C
ATOM     30  G   UNL     1      27.584  21.219  -6.736  1.00  0.00     0.000 C
ENDBRANCH  23  27
ENDBRANCH  14  17
ENDBRANCH   4  13
ENDBRANCH   1   4
BRANCH   1  31
ATOM     31  C   UNL     1      30.057  13.525  -3.490  1.00  0.00     0.092 C
BRANCH  31  32
ATOM     32  N   UNL     1      30.190  13.080  -4.875  1.00  0.00    -0.294 NA
ATOM     33  H   UNL     1      31.165  13.173  -5.147  1.00  0.00     0.124 HD
BRANCH  32  34
ATOM     34  C   UNL     1      29.431  13.965  -5.757  1.00  0.00     0.244 C
BRANCH  34  35
ATOM     35  O   UNL     1      28.470  14.714  -5.023  1.00  0.00    -0.365 OA
BRANCH  35  36
ATOM     36  C   UNL     1      27.244  14.942  -5.732  1.00  0.00     0.175 C
ATOM     37  G   UNL     1      26.044  14.821  -4.787  1.00  0.00     0.000 C
ENDBRANCH  35  36
ENDBRANCH  34  35
ENDBRANCH  32  34
ENDBRANCH  31  32
ENDBRANCH   1  31
TORSDOF 1
ENDMDL
