MODEL 1
REMARK VINA RESULT:      -8.9      0.000      0.000
REMARK SMILES CC(C)(C)[C@H]1NC(=O)c2c[nH]c3ncc(nc23)[C@]2(CCC[C@@]3(C#N)CN(C3)C1=O)CC2
REMARK SMILES IDX 6 1 7 2 8 3 5 5 2 6 1 7 3 8 4 9 28 10 29 11 26 12 25 13
REMARK SMILES IDX 27 14 22 15 23 16 24 17 21 18 9 20 10 21 17 22 11 23 16 24
REMARK SMILES IDX 12 25 15 26 13 27 14 28 18 30 30 31 31 32 19 33 20 34
REMARK H PARENT 6 4 11 29
REMARK Flexibility Score:   64.900
ROOT
ATOM      1  N   UNL     1      30.591  15.803  -4.401  1.00  0.00    -0.340 N
ATOM      2  C   UNL     1      30.874  14.925  -3.376  1.00  0.00     0.255 C
ATOM      3  O   UNL     1      30.021  14.345  -2.715  1.00  0.00    -0.269 OA
ATOM      4  H   UNL     1      31.379  16.346  -4.733  1.00  0.00     0.164 HD
ENDROOT
BRANCH   1   5
ATOM      5  C   UNL     1      29.239  16.267  -4.728  1.00  0.00     0.177 C
BRANCH   5   6
ATOM      6  C   UNL     1      28.530  15.589  -5.963  1.00  0.00    -0.009 C
ATOM      7  C   UNL     1      28.926  14.105  -6.108  1.00  0.00     0.013 C
ATOM      8  C   UNL     1      28.840  16.272  -7.301  1.00  0.00     0.013 C
ATOM      9  C   UNL     1      26.996  15.612  -5.759  1.00  0.00     0.013 C
ENDBRANCH   5   6
BRANCH   5  10
ATOM     10  C   UNL     1      29.208  17.823  -4.785  1.00  0.00     0.245 C
ATOM     11  O   UNL     1      28.128  18.418  -4.681  1.00  0.00    -0.272 OA
BRANCH  10  12
ATOM     12  N   UNL     1      30.341  18.544  -5.051  1.00  0.00    -0.338 N
ATOM     13  C   UNL     1      30.640  19.269  -6.283  1.00  0.00     0.143 C
ATOM     14  C   UNL     1      31.618  18.827  -4.428  1.00  0.00     0.143 C
ATOM     15  C   UNL     1      31.862  19.876  -5.551  1.00  0.00     0.092 C
ATOM     16  C   UNL     1      33.111  19.649  -6.265  1.00  0.00     0.073 C
ATOM     17  N   UNL     1      34.112  19.470  -6.825  1.00  0.00    -0.198 NA
BRANCH  15  18
ATOM     18  C   UNL     1      31.786  21.354  -5.112  1.00  0.00     0.026 C
ATOM     19  G   UNL     1      32.771  22.266  -5.846  1.00  0.00     0.000 C
ENDBRANCH  15  18
ENDBRANCH  10  12
ENDBRANCH   5  10
ENDBRANCH   1   5
BRANCH   2  20
ATOM     20  C   UNL     1      32.291  14.711  -3.133  1.00  0.00     0.085 A
ATOM     21  C   UNL     1      33.253  15.713  -3.120  1.00  0.00     0.100 A
ATOM     22  C   UNL     1      32.986  13.491  -2.918  1.00  0.00     0.120 A
ATOM     23  N   UNL     1      34.474  15.146  -2.857  1.00  0.00    -0.344 N
ATOM     24  N   UNL     1      32.533  12.211  -2.896  1.00  0.00    -0.246 NA
ATOM     25  C   UNL     1      34.329  13.793  -2.734  1.00  0.00     0.156 A
ATOM     26  C   UNL     1      33.501  11.269  -2.715  1.00  0.00     0.066 A
ATOM     27  N   UNL     1      35.319  12.913  -2.497  1.00  0.00    -0.235 NA
ATOM     28  C   UNL     1      34.837  11.641  -2.501  1.00  0.00     0.138 A
ATOM     29  H   UNL     1      35.359  15.628  -2.786  1.00  0.00     0.168 HD
BRANCH  26  30
ATOM     30  C   UNL     1      33.075   9.797  -2.743  1.00  0.00     0.014 C
ATOM     31  C   UNL     1      34.107   8.762  -2.316  1.00  0.00     0.014 C
ATOM     32  C   UNL     1      32.931   9.036  -1.431  1.00  0.00     0.014 C
BRANCH  30  33
ATOM     33  C   UNL     1      32.147   9.426  -3.891  1.00  0.00     0.013 C
BRANCH  33  34
ATOM     34  C   UNL     1      30.677   9.671  -3.529  1.00  0.00     0.003 C
ATOM     35  G   UNL     1      29.904  10.358  -4.656  1.00  0.00     0.000 C
ENDBRANCH  33  34
ENDBRANCH  30  33
ENDBRANCH  26  30
ENDBRANCH   2  20
TORSDOF 1
ENDMDL
MODEL 2
REMARK VINA RESULT:      -8.8      2.088      8.736
REMARK SMILES CC(C)(C)[C@H]1NC(=O)c2c[nH]c3ncc(nc23)[C@]2(CCC[C@@]3(C#N)CN(C3)C1=O)CC2
REMARK SMILES IDX 6 1 7 2 8 3 5 5 2 6 1 7 3 8 4 9 28 10 29 11 26 12 25 13
REMARK SMILES IDX 27 14 22 15 23 16 24 17 21 18 9 20 10 21 17 22 11 23 16 24
REMARK SMILES IDX 12 25 15 26 13 27 14 28 18 30 30 31 31 32 19 33 20 34
REMARK H PARENT 6 4 11 29
REMARK Flexibility Score:   64.900
ROOT
ATOM      1  N   UNL     1      29.911  15.253  -4.396  1.00  0.00    -0.340 N
ATOM      2  C   UNL     1      28.604  15.101  -4.809  1.00  0.00     0.255 C
ATOM      3  O   UNL     1      27.906  14.133  -4.534  1.00  0.00    -0.269 OA
ATOM      4  H   UNL     1      30.420  16.003  -4.847  1.00  0.00     0.164 HD
ENDROOT
BRANCH   1   5
ATOM      5  C   UNL     1      30.675  14.209  -3.706  1.00  0.00     0.177 C
BRANCH   5   6
ATOM      6  C   UNL     1      31.864  14.684  -2.785  1.00  0.00    -0.009 C
ATOM      7  C   UNL     1      32.884  13.554  -2.535  1.00  0.00     0.013 C
ATOM      8  C   UNL     1      31.411  15.196  -1.411  1.00  0.00     0.013 C
ATOM      9  C   UNL     1      32.642  15.824  -3.487  1.00  0.00     0.013 C
ENDBRANCH   5   6
BRANCH   5  10
ATOM     10  C   UNL     1      31.091  13.097  -4.714  1.00  0.00     0.245 C
ATOM     11  O   UNL     1      31.492  13.411  -5.841  1.00  0.00    -0.272 OA
BRANCH  10  12
ATOM     12  N   UNL     1      30.924  11.772  -4.413  1.00  0.00    -0.338 N
ATOM     13  C   UNL     1      31.867  10.692  -4.692  1.00  0.00     0.143 C
ATOM     14  C   UNL     1      29.900  10.904  -3.866  1.00  0.00     0.143 C
ATOM     15  C   UNL     1      30.969   9.774  -3.827  1.00  0.00     0.092 C
ATOM     16  C   UNL     1      30.542   8.577  -4.540  1.00  0.00     0.073 C
ATOM     17  N   UNL     1      30.194   7.623  -5.100  1.00  0.00    -0.198 NA
BRANCH  15  18
ATOM     18  C   UNL     1      31.473   9.378  -2.422  1.00  0.00     0.026 C
ATOM     19  G   UNL     1      32.830   8.673  -2.430  1.00  0.00     0.000 C
ENDBRANCH  15  18
ENDBRANCH  10  12
ENDBRANCH   5  10
ENDBRANCH   1   5
BRANCH   2  20
ATOM     20  C   UNL     1      28.085  16.204  -5.601  1.00  0.00     0.085 A
ATOM     21  C   UNL     1      26.937  16.149  -6.381  1.00  0.00     0.100 A
ATOM     22  C   UNL     1      28.630  17.502  -5.789  1.00  0.00     0.120 A
ATOM     23  N   UNL     1      26.754  17.369  -6.980  1.00  0.00    -0.344 N
ATOM     24  N   UNL     1      29.772  18.057  -5.306  1.00  0.00    -0.246 NA
ATOM     25  C   UNL     1      27.778  18.203  -6.632  1.00  0.00     0.156 A
ATOM     26  C   UNL     1      30.016  19.324  -5.741  1.00  0.00     0.066 A
ATOM     27  N   UNL     1      27.938  19.472  -7.051  1.00  0.00    -0.235 NA
ATOM     28  C   UNL     1      29.098  19.992  -6.566  1.00  0.00     0.138 A
ATOM     29  H   UNL     1      26.002  17.627  -7.604  1.00  0.00     0.168 HD
BRANCH  26  30
ATOM     30  C   UNL     1      31.319  19.993  -5.289  1.00  0.00     0.014 C
ATOM     31  C   UNL     1      31.559  21.430  -5.734  1.00  0.00     0.014 C
ATOM     32  C   UNL     1      31.261  21.145  -4.295  1.00  0.00     0.014 C
BRANCH  30  33
ATOM     33  C   UNL     1      32.525  19.066  -5.241  1.00  0.00     0.013 C
BRANCH  33  34
ATOM     34  C   UNL     1      33.225  18.979  -6.603  1.00  0.00     0.003 C
ATOM     35  G   UNL     1      33.348  17.540  -7.106  1.00  0.00     0.000 C
ENDBRANCH  33  34
ENDBRANCH  30  33
ENDBRANCH  26  30
ENDBRANCH   2  20
TORSDOF 1
ENDMDL
MODEL 3
REMARK VINA RESULT:      -8.8      0.902      1.630
REMARK SMILES CC(C)(C)[C@H]1NC(=O)c2c[nH]c3ncc(nc23)[C@]2(CCC[C@@]3(C#N)CN(C3)C1=O)CC2
REMARK SMILES IDX 6 1 7 2 8 3 5 5 2 6 1 7 3 8 4 9 28 10 29 11 26 12 25 13
REMARK SMILES IDX 27 14 22 15 23 16 24 17 21 18 9 20 10 21 17 22 11 23 16 24
REMARK SMILES IDX 12 25 15 26 13 27 14 28 18 30 30 31 31 32 19 33 20 34
REMARK H PARENT 6 4 11 29
REMARK Flexibility Score:   64.900
ROOT
ATOM      1  N   UNL     1      30.689  15.697  -4.362  1.00  0.00    -0.340 N
ATOM      2  C   UNL     1      31.034  15.119  -3.158  1.00  0.00     0.255 C
ATOM      3  O   UNL     1      30.236  14.869  -2.263  1.00  0.00    -0.269 OA
ATOM      4  H   UNL     1      31.467  16.013  -4.927  1.00  0.00     0.164 HD
ENDROOT
BRANCH   1   5
ATOM      5  C   UNL     1      29.353  16.222  -4.661  1.00  0.00     0.177 C
BRANCH   5   6
ATOM      6  C   UNL     1      28.562  15.535  -5.841  1.00  0.00    -0.009 C
ATOM      7  C   UNL     1      28.870  16.197  -7.200  1.00  0.00     0.013 C
ATOM      8  C   UNL     1      27.039  15.563  -5.659  1.00  0.00     0.013 C
ATOM      9  C   UNL     1      29.001  14.056  -5.969  1.00  0.00     0.013 C
ENDBRANCH   5   6
BRANCH   5  10
ATOM     10  C   UNL     1      29.404  17.773  -4.783  1.00  0.00     0.245 C
ATOM     11  O   UNL     1      28.372  18.435  -4.616  1.00  0.00    -0.272 OA
BRANCH  10  12
ATOM     12  N   UNL     1      30.548  18.415  -5.173  1.00  0.00    -0.338 N
ATOM     13  C   UNL     1      31.598  18.928  -4.296  1.00  0.00     0.143 C
ATOM     14  C   UNL     1      31.152  18.911  -6.393  1.00  0.00     0.143 C
ATOM     15  C   UNL     1      32.444  19.182  -5.568  1.00  0.00     0.092 C
ATOM     16  C   UNL     1      32.893  20.563  -5.674  1.00  0.00     0.073 C
ATOM     17  N   UNL     1      33.254  21.662  -5.769  1.00  0.00    -0.198 NA
BRANCH  15  18
ATOM     18  C   UNL     1      33.630  18.235  -5.854  1.00  0.00     0.026 C
ATOM     19  G   UNL     1      33.408  17.314  -7.054  1.00  0.00     0.000 C
ENDBRANCH  15  18
ENDBRANCH  10  12
ENDBRANCH   5  10
ENDBRANCH   1   5
BRANCH   2  20
ATOM     20  C   UNL     1      32.445  14.798  -3.022  1.00  0.00     0.085 A
ATOM     21  C   UNL     1      33.478  15.725  -3.086  1.00  0.00     0.100 A
ATOM     22  C   UNL     1      33.061  13.530  -2.853  1.00  0.00     0.120 A
ATOM     23  N   UNL     1      34.670  15.068  -2.912  1.00  0.00    -0.344 N
ATOM     24  N   UNL     1      32.516  12.287  -2.790  1.00  0.00    -0.246 NA
ATOM     25  C   UNL     1      34.433  13.730  -2.772  1.00  0.00     0.156 A
ATOM     26  C   UNL     1      33.421  11.275  -2.677  1.00  0.00     0.066 A
ATOM     27  N   UNL     1      35.369  12.777  -2.605  1.00  0.00    -0.235 NA
ATOM     28  C   UNL     1      34.794  11.545  -2.566  1.00  0.00     0.138 A
ATOM     29  H   UNL     1      35.591  15.482  -2.911  1.00  0.00     0.168 HD
BRANCH  26  30
ATOM     30  C   UNL     1      32.884   9.839  -2.665  1.00  0.00     0.014 C
ATOM     31  C   UNL     1      33.901   8.714  -2.527  1.00  0.00     0.014 C
ATOM     32  C   UNL     1      32.981   9.017  -1.387  1.00  0.00     0.014 C
BRANCH  30  33
ATOM     33  C   UNL     1      31.695   9.598  -3.583  1.00  0.00     0.013 C
BRANCH  33  34
ATOM     34  C   UNL     1      31.467   8.102  -3.830  1.00  0.00     0.003 C
ATOM     35  G   UNL     1      30.377   7.841  -4.870  1.00  0.00     0.000 C
ENDBRANCH  33  34
ENDBRANCH  30  33
ENDBRANCH  26  30
ENDBRANCH   2  20
TORSDOF 1
ENDMDL
MODEL 4
REMARK VINA RESULT:      -8.7      2.010      3.703
REMARK SMILES CC(C)(C)[C@H]1NC(=O)c2c[nH]c3ncc(nc23)[C@]2(CCC[C@@]3(C#N)CN(C3)C1=O)CC2
REMARK SMILES IDX 6 1 7 2 8 3 5 5 2 6 1 7 3 8 4 9 28 10 29 11 26 12 25 13
REMARK SMILES IDX 27 14 22 15 23 16 24 17 21 18 9 20 10 21 17 22 11 23 16 24
REMARK SMILES IDX 12 25 15 26 13 27 14 28 18 30 30 31 31 32 19 33 20 34
REMARK H PARENT 6 4 11 29
REMARK Flexibility Score:   64.900
ROOT
ATOM      1  N   UNL     1      28.974  13.996  -5.366  1.00  0.00    -0.340 N
ATOM      2  C   UNL     1      29.261  13.214  -4.267  1.00  0.00     0.255 C
ATOM      3  O   UNL     1      29.488  13.659  -3.149  1.00  0.00    -0.269 OA
ATOM      4  H   UNL     1      28.992  13.512  -6.256  1.00  0.00     0.164 HD
ENDROOT
BRANCH   1   5
ATOM      5  C   UNL     1      29.054  15.460  -5.369  1.00  0.00     0.177 C
BRANCH   5   6
ATOM      6  C   UNL     1      27.901  16.237  -6.116  1.00  0.00    -0.009 C
ATOM      7  C   UNL     1      28.223  16.442  -7.611  1.00  0.00     0.013 C
ATOM      8  C   UNL     1      27.608  17.621  -5.522  1.00  0.00     0.013 C
ATOM      9  C   UNL     1      26.595  15.408  -6.062  1.00  0.00     0.013 C
ENDBRANCH   5   6
BRANCH   5  10
ATOM     10  C   UNL     1      30.478  15.917  -5.802  1.00  0.00     0.245 C
ATOM     11  O   UNL     1      31.268  15.091  -6.276  1.00  0.00    -0.272 OA
BRANCH  10  12
ATOM     12  N   UNL     1      30.910  17.196  -5.574  1.00  0.00    -0.338 N
ATOM     13  C   UNL     1      31.484  17.710  -4.334  1.00  0.00     0.143 C
ATOM     14  C   UNL     1      30.930  18.472  -6.259  1.00  0.00     0.143 C
ATOM     15  C   UNL     1      31.838  19.002  -5.111  1.00  0.00     0.092 C
ATOM     16  C   UNL     1      31.298  20.199  -4.481  1.00  0.00     0.073 C
ATOM     17  N   UNL     1      30.870  21.158  -3.988  1.00  0.00    -0.198 NA
BRANCH  15  18
ATOM     18  C   UNL     1      33.316  19.243  -5.485  1.00  0.00     0.026 C
ATOM     19  G   UNL     1      33.659  20.714  -5.723  1.00  0.00     0.000 C
ENDBRANCH  15  18
ENDBRANCH  10  12
ENDBRANCH   5  10
ENDBRANCH   1   5
BRANCH   2  20
ATOM     20  C   UNL     1      29.259  11.783  -4.523  1.00  0.00     0.085 A
ATOM     21  C   UNL     1      28.199  11.078  -5.080  1.00  0.00     0.100 A
ATOM     22  C   UNL     1      30.264  10.822  -4.231  1.00  0.00     0.120 A
ATOM     23  N   UNL     1      28.553   9.756  -5.176  1.00  0.00    -0.344 N
ATOM     24  N   UNL     1      31.473  10.967  -3.630  1.00  0.00    -0.246 NA
ATOM     25  C   UNL     1      29.806   9.583  -4.661  1.00  0.00     0.156 A
ATOM     26  C   UNL     1      32.165   9.807  -3.459  1.00  0.00     0.066 A
ATOM     27  N   UNL     1      30.467   8.415  -4.570  1.00  0.00    -0.235 NA
ATOM     28  C   UNL     1      31.663   8.590  -3.946  1.00  0.00     0.138 A
ATOM     29  H   UNL     1      27.984   9.006  -5.542  1.00  0.00     0.168 HD
BRANCH  26  30
ATOM     30  C   UNL     1      33.511   9.881  -2.729  1.00  0.00     0.014 C
ATOM     31  C   UNL     1      33.537   9.466  -1.264  1.00  0.00     0.014 C
ATOM     32  C   UNL     1      34.193   8.593  -2.287  1.00  0.00     0.014 C
BRANCH  30  33
ATOM     33  C   UNL     1      34.391  11.053  -3.139  1.00  0.00     0.013 C
BRANCH  33  34
ATOM     34  C   UNL     1      34.225  12.244  -2.187  1.00  0.00     0.003 C
ATOM     35  G   UNL     1      33.965  13.554  -2.931  1.00  0.00     0.000 C
ENDBRANCH  33  34
ENDBRANCH  30  33
ENDBRANCH  26  30
ENDBRANCH   2  20
TORSDOF 1
ENDMDL
MODEL 5
REMARK VINA RESULT:      -8.6      0.854      1.152
REMARK SMILES CC(C)(C)[C@H]1NC(=O)c2c[nH]c3ncc(nc23)[C@]2(CCC[C@@]3(C#N)CN(C3)C1=O)CC2
REMARK SMILES IDX 6 1 7 2 8 3 5 5 2 6 1 7 3 8 4 9 28 10 29 11 26 12 25 13
REMARK SMILES IDX 27 14 22 15 23 16 24 17 21 18 9 20 10 21 17 22 11 23 16 24
REMARK SMILES IDX 12 25 15 26 13 27 14 28 18 30 30 31 31 32 19 33 20 34
REMARK H PARENT 6 4 11 29
REMARK Flexibility Score:   64.900
ROOT
ATOM      1  N   UNL     1      30.677  15.103  -4.039  1.00  0.00    -0.340 N
ATOM      2  C   UNL     1      31.256  15.098  -2.788  1.00  0.00     0.255 C
ATOM      3  O   UNL     1      30.670  15.412  -1.760  1.00  0.00    -0.269 OA
ATOM      4  H   UNL     1      31.322  15.002  -4.814  1.00  0.00     0.164 HD
ENDROOT
BRANCH   1   5
ATOM      5  C   UNL     1      29.335  15.627  -4.315  1.00  0.00     0.177 C
BRANCH   5   6
ATOM      6  C   UNL     1      28.458  14.832  -5.357  1.00  0.00    -0.009 C
ATOM      7  C   UNL     1      26.954  14.912  -5.021  1.00  0.00     0.013 C
ATOM      8  C   UNL     1      28.820  13.345  -5.458  1.00  0.00     0.013 C
ATOM      9  C   UNL     1      28.622  15.460  -6.763  1.00  0.00     0.013 C
ENDBRANCH   5   6
BRANCH   5  10
ATOM     10  C   UNL     1      29.410  17.153  -4.618  1.00  0.00     0.245 C
ATOM     11  O   UNL     1      28.382  17.839  -4.561  1.00  0.00    -0.272 OA
BRANCH  10  12
ATOM     12  N   UNL     1      30.573  17.732  -5.049  1.00  0.00    -0.338 N
ATOM     13  C   UNL     1      30.975  17.947  -6.436  1.00  0.00     0.143 C
ATOM     14  C   UNL     1      31.807  18.239  -4.483  1.00  0.00     0.143 C
ATOM     15  C   UNL     1      32.152  18.795  -5.894  1.00  0.00     0.092 C
ATOM     16  C   UNL     1      33.445  18.328  -6.377  1.00  0.00     0.073 C
ATOM     17  N   UNL     1      34.480  17.963  -6.753  1.00  0.00    -0.198 NA
BRANCH  15  18
ATOM     18  C   UNL     1      32.074  20.329  -6.046  1.00  0.00     0.026 C
ATOM     19  G   UNL     1      33.432  21.027  -5.967  1.00  0.00     0.000 C
ENDBRANCH  15  18
ENDBRANCH  10  12
ENDBRANCH   5  10
ENDBRANCH   1   5
BRANCH   2  20
ATOM     20  C   UNL     1      32.645  14.667  -2.764  1.00  0.00     0.085 A
ATOM     21  C   UNL     1      33.740  15.520  -2.819  1.00  0.00     0.100 A
ATOM     22  C   UNL     1      33.170  13.348  -2.733  1.00  0.00     0.120 A
ATOM     23  N   UNL     1      34.886  14.766  -2.771  1.00  0.00    -0.344 N
ATOM     24  N   UNL     1      32.536  12.147  -2.733  1.00  0.00    -0.246 NA
ATOM     25  C   UNL     1      34.555  13.442  -2.721  1.00  0.00     0.156 A
ATOM     26  C   UNL     1      33.365  11.067  -2.755  1.00  0.00     0.066 A
ATOM     27  N   UNL     1      35.423  12.414  -2.687  1.00  0.00    -0.235 NA
ATOM     28  C   UNL     1      34.759  11.227  -2.708  1.00  0.00     0.138 A
ATOM     29  H   UNL     1      35.834  15.112  -2.794  1.00  0.00     0.168 HD
BRANCH  26  30
ATOM     30  C   UNL     1      32.722   9.677  -2.822  1.00  0.00     0.014 C
ATOM     31  C   UNL     1      33.557   8.496  -2.345  1.00  0.00     0.014 C
ATOM     32  C   UNL     1      32.386   8.946  -1.529  1.00  0.00     0.014 C
BRANCH  30  33
ATOM     33  C   UNL     1      31.818   9.453  -4.026  1.00  0.00     0.013 C
BRANCH  33  34
ATOM     34  C   UNL     1      30.411  10.014  -3.786  1.00  0.00     0.003 C
ATOM     35  G   UNL     1      29.457   9.714  -4.943  1.00  0.00     0.000 C
ENDBRANCH  33  34
ENDBRANCH  30  33
ENDBRANCH  26  30
ENDBRANCH   2  20
TORSDOF 1
ENDMDL
MODEL 6
REMARK VINA RESULT:      -8.6      1.913      3.540
REMARK SMILES CC(C)(C)[C@H]1NC(=O)c2c[nH]c3ncc(nc23)[C@]2(CCC[C@@]3(C#N)CN(C3)C1=O)CC2
REMARK SMILES IDX 6 1 7 2 8 3 5 5 2 6 1 7 3 8 4 9 28 10 29 11 26 12 25 13
REMARK SMILES IDX 27 14 22 15 23 16 24 17 21 18 9 20 10 21 17 22 11 23 16 24
REMARK SMILES IDX 12 25 15 26 13 27 14 28 18 30 30 31 31 32 19 33 20 34
REMARK H PARENT 6 4 11 29
REMARK Flexibility Score:   64.900
ROOT
ATOM      1  N   UNL     1      29.134  14.266  -5.171  1.00  0.00    -0.340 N
ATOM      2  C   UNL     1      29.328  13.402  -4.114  1.00  0.00     0.255 C
ATOM      3  O   UNL     1      29.519  13.762  -2.960  1.00  0.00    -0.269 OA
ATOM      4  H   UNL     1      29.174  13.841  -6.090  1.00  0.00     0.164 HD
ENDROOT
BRANCH   1   5
ATOM      5  C   UNL     1      29.283  15.722  -5.072  1.00  0.00     0.177 C
BRANCH   5   6
ATOM      6  C   UNL     1      28.076  16.600  -5.583  1.00  0.00    -0.009 C
ATOM      7  C   UNL     1      26.729  15.860  -5.447  1.00  0.00     0.013 C
ATOM      8  C   UNL     1      28.208  17.031  -7.050  1.00  0.00     0.013 C
ATOM      9  C   UNL     1      27.960  17.879  -4.718  1.00  0.00     0.013 C
ENDBRANCH   5   6
BRANCH   5  10
ATOM     10  C   UNL     1      30.653  16.161  -5.669  1.00  0.00     0.245 C
ATOM     11  O   UNL     1      31.340  15.341  -6.290  1.00  0.00    -0.272 OA
BRANCH  10  12
ATOM     12  N   UNL     1      31.159  17.410  -5.431  1.00  0.00    -0.338 N
ATOM     13  C   UNL     1      31.518  18.407  -6.436  1.00  0.00     0.143 C
ATOM     14  C   UNL     1      31.610  18.202  -4.305  1.00  0.00     0.143 C
ATOM     15  C   UNL     1      31.700  19.416  -5.275  1.00  0.00     0.092 C
ATOM     16  C   UNL     1      33.018  20.034  -5.273  1.00  0.00     0.073 C
ATOM     17  N   UNL     1      34.067  20.531  -5.262  1.00  0.00    -0.198 NA
BRANCH  15  18
ATOM     18  C   UNL     1      30.624  20.506  -5.083  1.00  0.00     0.026 C
ATOM     19  G   UNL     1      29.758  20.742  -6.321  1.00  0.00     0.000 C
ENDBRANCH  15  18
ENDBRANCH  10  12
ENDBRANCH   5  10
ENDBRANCH   1   5
BRANCH   2  20
ATOM     20  C   UNL     1      29.271  11.992  -4.466  1.00  0.00     0.085 A
ATOM     21  C   UNL     1      28.192  11.371  -5.082  1.00  0.00     0.100 A
ATOM     22  C   UNL     1      30.231  10.973  -4.226  1.00  0.00     0.120 A
ATOM     23  N   UNL     1      28.493  10.045  -5.262  1.00  0.00    -0.344 N
ATOM     24  N   UNL     1      31.435  11.027  -3.600  1.00  0.00    -0.246 NA
ATOM     25  C   UNL     1      29.729   9.786  -4.743  1.00  0.00     0.156 A
ATOM     26  C   UNL     1      32.077   9.829  -3.499  1.00  0.00     0.066 A
ATOM     27  N   UNL     1      30.340   8.587  -4.722  1.00  0.00    -0.235 NA
ATOM     28  C   UNL     1      31.532   8.670  -4.072  1.00  0.00     0.138 A
ATOM     29  H   UNL     1      27.899   9.345  -5.684  1.00  0.00     0.168 HD
BRANCH  26  30
ATOM     30  C   UNL     1      33.413   9.798  -2.749  1.00  0.00     0.014 C
ATOM     31  C   UNL     1      33.380   9.417  -1.275  1.00  0.00     0.014 C
ATOM     32  C   UNL     1      33.969   8.465  -2.268  1.00  0.00     0.014 C
BRANCH  30  33
ATOM     33  C   UNL     1      34.402  10.876  -3.170  1.00  0.00     0.013 C
BRANCH  33  34
ATOM     34  C   UNL     1      34.487  12.001  -2.130  1.00  0.00     0.003 C
ATOM     35  G   UNL     1      34.059  13.354  -2.697  1.00  0.00     0.000 C
ENDBRANCH  33  34
ENDBRANCH  30  33
ENDBRANCH  26  30
ENDBRANCH   2  20
TORSDOF 1
ENDMDL
MODEL 7
REMARK VINA RESULT:      -8.6      1.824      2.696
REMARK SMILES CC(C)(C)[C@H]1NC(=O)c2c[nH]c3ncc(nc23)[C@]2(CCC[C@@]3(C#N)CN(C3)C1=O)CC2
REMARK SMILES IDX 6 1 7 2 8 3 5 5 2 6 1 7 3 8 4 9 28 10 29 11 26 12 25 13
REMARK SMILES IDX 27 14 22 15 23 16 24 17 21 18 9 20 10 21 17 22 11 23 16 24
REMARK SMILES IDX 12 25 15 26 13 27 14 28 18 30 30 31 31 32 19 33 20 34
REMARK H PARENT 6 4 11 29
REMARK Flexibility Score:   64.900
ROOT
ATOM      1  N   UNL     1      31.965  14.194  -3.727  1.00  0.00    -0.340 N
ATOM      2  C   UNL     1      33.200  14.469  -3.180  1.00  0.00     0.255 C
ATOM      3  O   UNL     1      33.629  15.599  -2.987  1.00  0.00    -0.269 OA
ATOM      4  H   UNL     1      31.818  13.229  -3.999  1.00  0.00     0.164 HD
ENDROOT
BRANCH   1   5
ATOM      5  C   UNL     1      31.074  15.217  -4.284  1.00  0.00     0.177 C
BRANCH   5   6
ATOM      6  C   UNL     1      29.612  14.761  -4.664  1.00  0.00    -0.009 C
ATOM      7  C   UNL     1      29.573  14.028  -6.021  1.00  0.00     0.013 C
ATOM      8  C   UNL     1      28.609  15.920  -4.748  1.00  0.00     0.013 C
ATOM      9  C   UNL     1      29.091  13.754  -3.610  1.00  0.00     0.013 C
ENDBRANCH   5   6
BRANCH   5  10
ATOM     10  C   UNL     1      31.792  15.982  -5.434  1.00  0.00     0.245 C
ATOM     11  O   UNL     1      32.492  15.358  -6.241  1.00  0.00    -0.272 OA
BRANCH  10  12
ATOM     12  N   UNL     1      31.748  17.348  -5.510  1.00  0.00    -0.338 N
ATOM     13  C   UNL     1      31.580  18.275  -4.394  1.00  0.00     0.143 C
ATOM     14  C   UNL     1      31.742  18.379  -6.528  1.00  0.00     0.143 C
ATOM     15  C   UNL     1      31.899  19.422  -5.384  1.00  0.00     0.092 C
ATOM     16  C   UNL     1      30.859  20.442  -5.413  1.00  0.00     0.073 C
ATOM     17  N   UNL     1      30.035  21.258  -5.445  1.00  0.00    -0.198 NA
BRANCH  15  18
ATOM     18  C   UNL     1      33.281  20.104  -5.287  1.00  0.00     0.026 C
ATOM     19  G   UNL     1      33.331  21.489  -5.932  1.00  0.00     0.000 C
ENDBRANCH  15  18
ENDBRANCH  10  12
ENDBRANCH   5  10
ENDBRANCH   1   5
BRANCH   2  20
ATOM     20  C   UNL     1      33.979  13.295  -2.820  1.00  0.00     0.085 A
ATOM     21  C   UNL     1      35.313  13.317  -2.430  1.00  0.00     0.100 A
ATOM     22  C   UNL     1      33.593  11.928  -2.834  1.00  0.00     0.120 A
ATOM     23  N   UNL     1      35.714  12.032  -2.165  1.00  0.00    -0.344 N
ATOM     24  N   UNL     1      32.419  11.348  -3.195  1.00  0.00    -0.246 NA
ATOM     25  C   UNL     1      34.679  11.174  -2.409  1.00  0.00     0.156 A
ATOM     26  C   UNL     1      32.416   9.987  -3.136  1.00  0.00     0.066 A
ATOM     27  N   UNL     1      34.718   9.836  -2.278  1.00  0.00    -0.235 NA
ATOM     28  C   UNL     1      33.536   9.284  -2.666  1.00  0.00     0.138 A
ATOM     29  H   UNL     1      36.632  11.739  -1.862  1.00  0.00     0.168 HD
BRANCH  26  30
ATOM     30  C   UNL     1      31.147   9.257  -3.590  1.00  0.00     0.014 C
ATOM     31  C   UNL     1      31.320   8.067  -4.524  1.00  0.00     0.014 C
ATOM     32  C   UNL     1      30.890   7.835  -3.109  1.00  0.00     0.014 C
BRANCH  30  33
ATOM     33  C   UNL     1      29.945  10.161  -3.824  1.00  0.00     0.013 C
BRANCH  33  34
ATOM     34  C   UNL     1      29.563  10.219  -5.309  1.00  0.00     0.003 C
ATOM     35  G   UNL     1      28.094   9.869  -5.549  1.00  0.00     0.000 C
ENDBRANCH  33  34
ENDBRANCH  30  33
ENDBRANCH  26  30
ENDBRANCH   2  20
TORSDOF 1
ENDMDL
MODEL 8
REMARK VINA RESULT:      -8.5      1.891      2.944
REMARK SMILES CC(C)(C)[C@H]1NC(=O)c2c[nH]c3ncc(nc23)[C@]2(CCC[C@@]3(C#N)CN(C3)C1=O)CC2
REMARK SMILES IDX 6 1 7 2 8 3 5 5 2 6 1 7 3 8 4 9 28 10 29 11 26 12 25 13
REMARK SMILES IDX 27 14 22 15 23 16 24 17 21 18 9 20 10 21 17 22 11 23 16 24
REMARK SMILES IDX 12 25 15 26 13 27 14 28 18 30 30 31 31 32 19 33 20 34
REMARK H PARENT 6 4 11 29
REMARK Flexibility Score:   64.900
ROOT
ATOM      1  N   UNL     1      31.894  14.227  -3.823  1.00  0.00    -0.340 N
ATOM      2  C   UNL     1      33.093  14.434  -3.172  1.00  0.00     0.255 C
ATOM      3  O   UNL     1      33.525  15.537  -2.865  1.00  0.00    -0.269 OA
ATOM      4  H   UNL     1      31.752  13.289  -4.177  1.00  0.00     0.164 HD
ENDROOT
BRANCH   1   5
ATOM      5  C   UNL     1      31.062  15.308  -4.362  1.00  0.00     0.177 C
BRANCH   5   6
ATOM      6  C   UNL     1      29.576  14.942  -4.745  1.00  0.00    -0.009 C
ATOM      7  C   UNL     1      29.476  14.376  -6.178  1.00  0.00     0.013 C
ATOM      8  C   UNL     1      28.609  16.129  -4.660  1.00  0.00     0.013 C
ATOM      9  C   UNL     1      29.054  13.831  -3.803  1.00  0.00     0.013 C
ENDBRANCH   5   6
BRANCH   5  10
ATOM     10  C   UNL     1      31.822  16.050  -5.501  1.00  0.00     0.245 C
ATOM     11  O   UNL     1      32.548  15.409  -6.270  1.00  0.00    -0.272 OA
BRANCH  10  12
ATOM     12  N   UNL     1      31.782  17.414  -5.605  1.00  0.00    -0.338 N
ATOM     13  C   UNL     1      31.886  18.372  -4.508  1.00  0.00     0.143 C
ATOM     14  C   UNL     1      31.560  18.418  -6.625  1.00  0.00     0.143 C
ATOM     15  C   UNL     1      31.989  19.486  -5.578  1.00  0.00     0.092 C
ATOM     16  C   UNL     1      30.986  20.527  -5.400  1.00  0.00     0.073 C
ATOM     17  N   UNL     1      30.189  21.360  -5.269  1.00  0.00    -0.198 NA
BRANCH  15  18
ATOM     18  C   UNL     1      33.367  20.140  -5.816  1.00  0.00     0.026 C
ATOM     19  G   UNL     1      33.574  21.442  -5.041  1.00  0.00     0.000 C
ENDBRANCH  15  18
ENDBRANCH  10  12
ENDBRANCH   5  10
ENDBRANCH   1   5
BRANCH   2  20
ATOM     20  C   UNL     1      33.824  13.219  -2.849  1.00  0.00     0.085 A
ATOM     21  C   UNL     1      35.139  13.182  -2.399  1.00  0.00     0.100 A
ATOM     22  C   UNL     1      33.406  11.867  -2.962  1.00  0.00     0.120 A
ATOM     23  N   UNL     1      35.495  11.873  -2.194  1.00  0.00    -0.344 N
ATOM     24  N   UNL     1      32.236  11.342  -3.409  1.00  0.00    -0.246 NA
ATOM     25  C   UNL     1      34.452  11.060  -2.535  1.00  0.00     0.156 A
ATOM     26  C   UNL     1      32.196   9.981  -3.433  1.00  0.00     0.066 A
ATOM     27  N   UNL     1      34.451   9.716  -2.483  1.00  0.00    -0.235 NA
ATOM     28  C   UNL     1      33.275   9.220  -2.956  1.00  0.00     0.138 A
ATOM     29  H   UNL     1      36.390  11.538  -1.868  1.00  0.00     0.168 HD
BRANCH  26  30
ATOM     30  C   UNL     1      30.932   9.314  -3.986  1.00  0.00     0.014 C
ATOM     31  C   UNL     1      29.653  10.141  -4.001  1.00  0.00     0.014 C
ATOM     32  C   UNL     1      30.334   9.817  -5.294  1.00  0.00     0.014 C
BRANCH  30  33
ATOM     33  C   UNL     1      30.802   7.832  -3.663  1.00  0.00     0.013 C
BRANCH  33  34
ATOM     34  C   UNL     1      30.773   6.978  -4.936  1.00  0.00     0.003 C
ATOM     35  G   UNL     1      29.469   6.192  -5.083  1.00  0.00     0.000 C
ENDBRANCH  33  34
ENDBRANCH  30  33
ENDBRANCH  26  30
ENDBRANCH   2  20
TORSDOF 1
ENDMDL
MODEL 9
REMARK VINA RESULT:      -8.1      2.608      8.745
REMARK SMILES CC(C)(C)[C@H]1NC(=O)c2c[nH]c3ncc(nc23)[C@]2(CCC[C@@]3(C#N)CN(C3)C1=O)CC2
REMARK SMILES IDX 6 1 7 2 8 3 5 5 2 6 1 7 3 8 4 9 28 10 29 11 26 12 25 13
REMARK SMILES IDX 27 14 22 15 23 16 24 17 21 18 9 20 10 21 17 22 11 23 16 24
REMARK SMILES IDX 12 25 15 26 13 27 14 28 18 30 30 31 31 32 19 33 20 34
REMARK H PARENT 6 4 11 29
REMARK Flexibility Score:   64.900
ROOT
ATOM      1  N   UNL     1      29.751  15.456  -4.450  1.00  0.00    -0.340 N
ATOM      2  C   UNL     1      28.420  15.418  -4.810  1.00  0.00     0.255 C
ATOM      3  O   UNL     1      27.658  14.503  -4.527  1.00  0.00    -0.269 OA
ATOM      4  H   UNL     1      30.301  16.173  -4.906  1.00  0.00     0.164 HD
ENDROOT
BRANCH   1   5
ATOM      5  C   UNL     1      30.455  14.338  -3.814  1.00  0.00     0.177 C
BRANCH   5   6
ATOM      6  C   UNL     1      31.714  14.695  -2.933  1.00  0.00    -0.009 C
ATOM      7  C   UNL     1      31.313  15.135  -1.509  1.00  0.00     0.013 C
ATOM      8  C   UNL     1      32.581  15.814  -3.524  1.00  0.00     0.013 C
ATOM      9  C   UNL     1      32.604  13.439  -2.765  1.00  0.00     0.013 C
ENDBRANCH   5   6
BRANCH   5  10
ATOM     10  C   UNL     1      30.740  13.221  -4.861  1.00  0.00     0.245 C
ATOM     11  O   UNL     1      31.561  13.424  -5.764  1.00  0.00    -0.272 OA
BRANCH  10  12
ATOM     12  N   UNL     1      30.024  12.055  -4.864  1.00  0.00    -0.338 N
ATOM     13  C   UNL     1      29.146  11.577  -5.928  1.00  0.00     0.143 C
ATOM     14  C   UNL     1      29.736  10.956  -3.963  1.00  0.00     0.143 C
ATOM     15  C   UNL     1      29.060  10.233  -5.164  1.00  0.00     0.092 C
ATOM     16  C   UNL     1      27.687   9.839  -4.877  1.00  0.00     0.073 C
ATOM     17  N   UNL     1      26.598   9.518  -4.640  1.00  0.00    -0.198 NA
BRANCH  15  18
ATOM     18  C   UNL     1      29.830   9.022  -5.733  1.00  0.00     0.026 C
ATOM     19  G   UNL     1      29.177   8.401  -6.969  1.00  0.00     0.000 C
ENDBRANCH  15  18
ENDBRANCH  10  12
ENDBRANCH   5  10
ENDBRANCH   1   5
BRANCH   2  20
ATOM     20  C   UNL     1      27.961  16.579  -5.557  1.00  0.00     0.085 A
ATOM     21  C   UNL     1      26.772  16.640  -6.274  1.00  0.00     0.100 A
ATOM     22  C   UNL     1      28.610  17.826  -5.758  1.00  0.00     0.120 A
ATOM     23  N   UNL     1      26.668  17.884  -6.844  1.00  0.00    -0.344 N
ATOM     24  N   UNL     1      29.822  18.267  -5.331  1.00  0.00    -0.246 NA
ATOM     25  C   UNL     1      27.781  18.616  -6.542  1.00  0.00     0.156 A
ATOM     26  C   UNL     1      30.155  19.516  -5.761  1.00  0.00     0.066 A
ATOM     27  N   UNL     1      28.031  19.873  -6.951  1.00  0.00    -0.235 NA
ATOM     28  C   UNL     1      29.258  20.278  -6.525  1.00  0.00     0.138 A
ATOM     29  H   UNL     1      25.911  18.219  -7.422  1.00  0.00     0.168 HD
BRANCH  26  30
ATOM     30  C   UNL     1      31.536  20.057  -5.373  1.00  0.00     0.014 C
ATOM     31  C   UNL     1      31.900  21.455  -5.854  1.00  0.00     0.014 C
ATOM     32  C   UNL     1      31.634  21.224  -4.399  1.00  0.00     0.014 C
BRANCH  30  33
ATOM     33  C   UNL     1      32.644  19.014  -5.353  1.00  0.00     0.013 C
BRANCH  33  34
ATOM     34  C   UNL     1      33.396  18.964  -6.689  1.00  0.00     0.003 C
ATOM     35  G   UNL     1      33.660  17.533  -7.158  1.00  0.00     0.000 C
ENDBRANCH  33  34
ENDBRANCH  30  33
ENDBRANCH  26  30
ENDBRANCH   2  20
TORSDOF 1
ENDMDL
