MODEL 1
REMARK VINA RESULT:      -7.7      0.000      0.000
REMARK SMILES O=C1Nc2c[nH]nc2-c2nc3ccc(cc3[nH]2)CN2CCOC[C@@H]2CCNCCCC2(CC2)N1
REMARK SMILES IDX 9 1 10 2 11 3 12 4 13 5 14 6 15 7 16 8 17 9 8 11 4 12 5 13
REMARK SMILES IDX 6 14 7 15 3 17 1 18 2 19 34 20 31 23 32 24 33 25 30 26 29 27
REMARK SMILES IDX 18 29 19 30 20 31 24 32 21 33 23 34 22 35 25 36 26 37 27 38
REMARK SMILES IDX 28 40
REMARK H PARENT 17 10 6 16 3 21 34 22 27 39
REMARK Flexibility Score:   58.900
ROOT
ATOM      1  C   UNL     1      32.290  10.366  -3.549  1.00  0.00     0.161 A
ATOM      2  N   UNL     1      32.335   9.069  -3.274  1.00  0.00    -0.227 NA
ATOM      3  C   UNL     1      31.327   8.490  -4.008  1.00  0.00     0.089 A
ATOM      4  C   UNL     1      30.908   7.155  -4.097  1.00  0.00     0.031 A
ATOM      5  C   UNL     1      29.829   6.838  -4.944  1.00  0.00     0.007 A
ATOM      6  C   UNL     1      29.183   7.828  -5.701  1.00  0.00    -0.032 A
ATOM      7  C   UNL     1      29.605   9.164  -5.615  1.00  0.00     0.033 A
ATOM      8  C   UNL     1      30.664   9.446  -4.757  1.00  0.00     0.066 A
ATOM      9  N   UNL     1      31.273  10.620  -4.423  1.00  0.00    -0.337 N
ATOM     10  H   UNL     1      30.958  11.538  -4.699  1.00  0.00     0.168 HD
ENDROOT
BRANCH   1  11
ATOM     11  C   UNL     1      33.305  11.443  -2.982  1.00  0.00     0.151 A
ATOM     12  C   UNL     1      33.185  12.860  -2.777  1.00  0.00     0.092 A
ATOM     13  C   UNL     1      34.463  13.255  -2.428  1.00  0.00     0.132 A
ATOM     14  N   UNL     1      35.219  12.127  -2.370  1.00  0.00    -0.283 N
ATOM     15  N   UNL     1      34.554  11.026  -2.701  1.00  0.00    -0.170 NA
ATOM     16  H   UNL     1      36.199  12.035  -2.122  1.00  0.00     0.189 HD
BRANCH  12  17
ATOM     17  N   UNL     1      32.196  13.832  -2.871  1.00  0.00    -0.304 N
ATOM     18  O   UNL     1      32.739  14.916  -4.834  1.00  0.00    -0.248 OA
ATOM     19  C   UNL     1      32.059  14.809  -3.822  1.00  0.00     0.319 C
ATOM     20  N   UNL     1      31.031  15.680  -3.526  1.00  0.00    -0.332 N
ATOM     21  H   UNL     1      31.389  13.684  -2.281  1.00  0.00     0.172 HD
ATOM     22  H   UNL     1      30.612  15.654  -2.607  1.00  0.00     0.165 HD
BRANCH  20  23
ATOM     23  C   UNL     1      30.593  16.721  -4.434  1.00  0.00     0.042 C
ATOM     24  C   UNL     1      29.086  16.866  -4.589  1.00  0.00     0.031 C
ATOM     25  C   UNL     1      29.894  16.303  -5.717  1.00  0.00     0.031 C
BRANCH  23  26
ATOM     26  C   UNL     1      31.419  18.010  -4.343  1.00  0.00     0.030 C
BRANCH  26  27
ATOM     27  C   UNL     1      32.360  18.322  -5.515  1.00  0.00     0.018 C
ATOM     28  G   UNL     1      32.908  19.756  -5.501  1.00  0.00     0.000 C
ENDBRANCH  26  27
ENDBRANCH  23  26
ENDBRANCH  20  23
ENDBRANCH  12  17
ENDBRANCH   1  11
BRANCH   6  29
ATOM     29  C   UNL     1      28.032   7.492  -6.628  1.00  0.00     0.120 C
BRANCH  29  30
ATOM     30  N   UNL     1      26.873   8.378  -6.379  1.00  0.00    -0.292 NA
ATOM     31  C   UNL     1      25.964   7.742  -5.394  1.00  0.00     0.113 C
ATOM     32  C   UNL     1      26.092   8.670  -7.605  1.00  0.00     0.084 C
ATOM     33  C   UNL     1      24.813   6.924  -6.024  1.00  0.00     0.175 C
ATOM     34  C   UNL     1      25.538   7.374  -8.249  1.00  0.00     0.179 C
ATOM     35  O   UNL     1      25.181   6.363  -7.288  1.00  0.00    -0.378 OA
BRANCH  32  36
ATOM     36  C   UNL     1      26.829   9.562  -8.629  1.00  0.00     0.037 C
BRANCH  36  37
ATOM     37  C   UNL     1      26.544  11.057  -8.413  1.00  0.00     0.082 C
BRANCH  37  38
ATOM     38  N   UNL     1      27.151  11.508  -7.153  1.00  0.00    -0.317 NA
ATOM     39  H   UNL     1      28.166  11.438  -7.220  1.00  0.00     0.122 HD
BRANCH  38  40
ATOM     40  C   UNL     1      26.783  12.899  -6.863  1.00  0.00     0.081 C
ATOM     41  G   UNL     1      27.276  13.315  -5.470  1.00  0.00     0.000 C
ENDBRANCH  38  40
ENDBRANCH  37  38
ENDBRANCH  36  37
ENDBRANCH  32  36
ENDBRANCH  29  30
ENDBRANCH   6  29
TORSDOF 0
ENDMDL
MODEL 2
REMARK VINA RESULT:      -7.7      2.384      9.196
REMARK SMILES O=C1Nc2c[nH]nc2-c2nc3ccc(cc3[nH]2)CN2CCOC[C@@H]2CCNCCCC2(CC2)N1
REMARK SMILES IDX 9 1 10 2 11 3 12 4 13 5 14 6 15 7 16 8 17 9 8 11 4 12 5 13
REMARK SMILES IDX 6 14 7 15 3 17 1 18 2 19 34 20 31 23 32 24 33 25 30 26 29 27
REMARK SMILES IDX 18 29 19 30 20 31 24 32 21 33 23 34 22 35 25 36 26 37 27 38
REMARK SMILES IDX 28 40
REMARK H PARENT 17 10 6 16 3 21 34 22 27 39
REMARK Flexibility Score:   58.900
ROOT
ATOM      1  C   UNL     1      32.352  12.099  -3.813  1.00  0.00     0.161 A
ATOM      2  N   UNL     1      31.600  12.386  -4.867  1.00  0.00    -0.227 NA
ATOM      3  C   UNL     1      31.667  13.750  -5.021  1.00  0.00     0.089 A
ATOM      4  C   UNL     1      31.061  14.598  -5.960  1.00  0.00     0.031 A
ATOM      5  C   UNL     1      31.309  15.981  -5.883  1.00  0.00     0.007 A
ATOM      6  C   UNL     1      32.154  16.517  -4.898  1.00  0.00    -0.032 A
ATOM      7  C   UNL     1      32.763  15.667  -3.960  1.00  0.00     0.033 A
ATOM      8  C   UNL     1      32.486  14.307  -4.055  1.00  0.00     0.066 A
ATOM      9  N   UNL     1      32.877  13.247  -3.291  1.00  0.00    -0.337 N
ATOM     10  H   UNL     1      33.387  13.311  -2.423  1.00  0.00     0.168 HD
ENDROOT
BRANCH   1  11
ATOM     11  C   UNL     1      32.635  10.634  -3.280  1.00  0.00     0.151 A
ATOM     12  C   UNL     1      32.094   9.356  -3.652  1.00  0.00     0.092 A
ATOM     13  C   UNL     1      32.605   8.490  -2.704  1.00  0.00     0.132 A
ATOM     14  N   UNL     1      33.431   9.220  -1.910  1.00  0.00    -0.283 N
ATOM     15  N   UNL     1      33.466  10.510  -2.227  1.00  0.00    -0.170 NA
ATOM     16  H   UNL     1      33.994   8.908  -1.125  1.00  0.00     0.189 HD
BRANCH  12  17
ATOM     17  N   UNL     1      31.238   8.845  -4.621  1.00  0.00    -0.304 N
ATOM     18  O   UNL     1      29.252   9.923  -4.156  1.00  0.00    -0.248 OA
ATOM     19  C   UNL     1      29.901   9.097  -4.784  1.00  0.00     0.319 C
ATOM     20  N   UNL     1      29.343   8.313  -5.773  1.00  0.00    -0.332 N
ATOM     21  H   UNL     1      31.692   8.387  -5.398  1.00  0.00     0.172 HD
ATOM     22  H   UNL     1      29.871   7.537  -6.144  1.00  0.00     0.165 HD
BRANCH  20  23
ATOM     23  C   UNL     1      27.979   8.478  -6.234  1.00  0.00     0.042 C
ATOM     24  C   UNL     1      27.824   8.941  -7.675  1.00  0.00     0.031 C
ATOM     25  C   UNL     1      27.497   9.881  -6.557  1.00  0.00     0.031 C
BRANCH  23  26
ATOM     26  C   UNL     1      27.023   7.385  -5.738  1.00  0.00     0.030 C
BRANCH  26  27
ATOM     27  C   UNL     1      25.798   7.841  -4.933  1.00  0.00     0.018 C
ATOM     28  G   UNL     1      25.187   6.734  -4.061  1.00  0.00     0.000 C
ENDBRANCH  26  27
ENDBRANCH  23  26
ENDBRANCH  20  23
ENDBRANCH  12  17
ENDBRANCH   1  11
BRANCH   6  29
ATOM     29  C   UNL     1      32.439  18.003  -4.819  1.00  0.00     0.120 C
BRANCH  29  30
ATOM     30  N   UNL     1      32.213  18.657  -6.127  1.00  0.00    -0.292 NA
ATOM     31  C   UNL     1      33.475  18.660  -6.906  1.00  0.00     0.113 C
ATOM     32  C   UNL     1      31.745  20.058  -6.002  1.00  0.00     0.084 C
ATOM     33  C   UNL     1      34.316  19.949  -6.753  1.00  0.00     0.175 C
ATOM     34  C   UNL     1      32.767  20.933  -5.232  1.00  0.00     0.179 C
ATOM     35  O   UNL     1      34.136  20.558  -5.470  1.00  0.00    -0.378 OA
BRANCH  32  36
ATOM     36  C   UNL     1      30.313  20.201  -5.439  1.00  0.00     0.037 C
BRANCH  36  37
ATOM     37  C   UNL     1      29.239  19.853  -6.481  1.00  0.00     0.082 C
BRANCH  37  38
ATOM     38  N   UNL     1      28.086  19.221  -5.824  1.00  0.00    -0.317 NA
ATOM     39  H   UNL     1      27.476  18.810  -6.530  1.00  0.00     0.122 HD
BRANCH  38  40
ATOM     40  C   UNL     1      28.524  18.171  -4.896  1.00  0.00     0.081 C
ATOM     41  G   UNL     1      27.646  16.920  -5.036  1.00  0.00     0.000 C
ENDBRANCH  38  40
ENDBRANCH  37  38
ENDBRANCH  36  37
ENDBRANCH  32  36
ENDBRANCH  29  30
ENDBRANCH   6  29
TORSDOF 0
ENDMDL
MODEL 3
REMARK VINA RESULT:      -7.7      2.644      8.306
REMARK SMILES O=C1Nc2c[nH]nc2-c2nc3ccc(cc3[nH]2)CN2CCOC[C@@H]2CCNCCCC2(CC2)N1
REMARK SMILES IDX 9 1 10 2 11 3 12 4 13 5 14 6 15 7 16 8 17 9 8 11 4 12 5 13
REMARK SMILES IDX 6 14 7 15 3 17 1 18 2 19 34 20 31 23 32 24 33 25 30 26 29 27
REMARK SMILES IDX 18 29 19 30 20 31 24 32 21 33 23 34 22 35 25 36 26 37 27 38
REMARK SMILES IDX 28 40
REMARK H PARENT 17 10 6 16 3 21 34 22 27 39
REMARK Flexibility Score:   58.900
ROOT
ATOM      1  C   UNL     1      28.097  11.190  -5.340  1.00  0.00     0.161 A
ATOM      2  N   UNL     1      26.981  11.904  -5.290  1.00  0.00    -0.227 NA
ATOM      3  C   UNL     1      27.374  13.215  -5.170  1.00  0.00     0.089 A
ATOM      4  C   UNL     1      26.620  14.393  -5.064  1.00  0.00     0.031 A
ATOM      5  C   UNL     1      27.295  15.622  -4.952  1.00  0.00     0.007 A
ATOM      6  C   UNL     1      28.697  15.686  -4.957  1.00  0.00    -0.032 A
ATOM      7  C   UNL     1      29.453  14.508  -5.067  1.00  0.00     0.033 A
ATOM      8  C   UNL     1      28.755  13.308  -5.161  1.00  0.00     0.066 A
ATOM      9  N   UNL     1      29.180  12.014  -5.238  1.00  0.00    -0.337 N
ATOM     10  H   UNL     1      30.137  11.709  -5.134  1.00  0.00     0.168 HD
ENDROOT
BRANCH   1  11
ATOM     11  C   UNL     1      28.154   9.619  -5.540  1.00  0.00     0.151 A
ATOM     12  C   UNL     1      29.230   8.674  -5.419  1.00  0.00     0.092 A
ATOM     13  C   UNL     1      28.690   7.493  -5.892  1.00  0.00     0.132 A
ATOM     14  N   UNL     1      27.387   7.746  -6.181  1.00  0.00    -0.283 N
ATOM     15  N   UNL     1      27.038   9.012  -5.984  1.00  0.00    -0.170 NA
ATOM     16  H   UNL     1      26.680   7.105  -6.527  1.00  0.00     0.189 HD
BRANCH  12  17
ATOM     17  N   UNL     1      30.560   8.677  -5.013  1.00  0.00    -0.304 N
ATOM     18  O   UNL     1      30.485   9.903  -3.060  1.00  0.00    -0.248 OA
ATOM     19  C   UNL     1      31.110   9.313  -3.931  1.00  0.00     0.319 C
ATOM     20  N   UNL     1      32.485   9.204  -3.910  1.00  0.00    -0.332 N
ATOM     21  H   UNL     1      31.148   7.985  -5.455  1.00  0.00     0.172 HD
ATOM     22  H   UNL     1      32.965   8.857  -4.729  1.00  0.00     0.165 HD
BRANCH  20  23
ATOM     23  C   UNL     1      33.297   9.672  -2.805  1.00  0.00     0.042 C
ATOM     24  C   UNL     1      34.075   8.597  -2.059  1.00  0.00     0.031 C
ATOM     25  C   UNL     1      32.902   9.254  -1.399  1.00  0.00     0.031 C
BRANCH  23  26
ATOM     26  C   UNL     1      34.018  10.997  -3.085  1.00  0.00     0.030 C
BRANCH  26  27
ATOM     27  C   UNL     1      33.191  12.284  -2.955  1.00  0.00     0.018 C
ATOM     28  G   UNL     1      32.606  12.777  -4.285  1.00  0.00     0.000 C
ENDBRANCH  26  27
ENDBRANCH  23  26
ENDBRANCH  20  23
ENDBRANCH  12  17
ENDBRANCH   1  11
BRANCH   6  29
ATOM     29  C   UNL     1      29.432  17.008  -4.854  1.00  0.00     0.120 C
BRANCH  29  30
ATOM     30  N   UNL     1      29.699  17.573  -6.195  1.00  0.00    -0.292 NA
ATOM     31  C   UNL     1      31.115  17.335  -6.562  1.00  0.00     0.113 C
ATOM     32  C   UNL     1      29.441  19.031  -6.271  1.00  0.00     0.084 C
ATOM     33  C   UNL     1      32.069  18.503  -6.217  1.00  0.00     0.175 C
ATOM     34  C   UNL     1      30.322  19.818  -5.268  1.00  0.00     0.179 C
ATOM     35  O   UNL     1      31.626  19.239  -5.073  1.00  0.00    -0.378 OA
BRANCH  32  36
ATOM     36  C   UNL     1      27.949  19.419  -6.167  1.00  0.00     0.037 C
BRANCH  36  37
ATOM     37  C   UNL     1      27.037  18.438  -6.919  1.00  0.00     0.082 C
BRANCH  37  38
ATOM     38  N   UNL     1      27.593  18.150  -8.248  1.00  0.00    -0.317 NA
ATOM     39  H   UNL     1      28.596  17.984  -8.167  1.00  0.00     0.122 HD
BRANCH  38  40
ATOM     40  C   UNL     1      26.956  16.965  -8.837  1.00  0.00     0.081 C
ATOM     41  G   UNL     1      27.836  15.722  -8.647  1.00  0.00     0.000 C
ENDBRANCH  38  40
ENDBRANCH  37  38
ENDBRANCH  36  37
ENDBRANCH  32  36
ENDBRANCH  29  30
ENDBRANCH   6  29
TORSDOF 0
ENDMDL
MODEL 4
REMARK VINA RESULT:      -7.6      0.980      1.964
REMARK SMILES O=C1Nc2c[nH]nc2-c2nc3ccc(cc3[nH]2)CN2CCOC[C@@H]2CCNCCCC2(CC2)N1
REMARK SMILES IDX 9 1 10 2 11 3 12 4 13 5 14 6 15 7 16 8 17 9 8 11 4 12 5 13
REMARK SMILES IDX 6 14 7 15 3 17 1 18 2 19 34 20 31 23 32 24 33 25 30 26 29 27
REMARK SMILES IDX 18 29 19 30 20 31 24 32 21 33 23 34 22 35 25 36 26 37 27 38
REMARK SMILES IDX 28 40
REMARK H PARENT 17 10 6 16 3 21 34 22 27 39
REMARK Flexibility Score:   58.900
ROOT
ATOM      1  C   UNL     1      32.532  10.372  -3.420  1.00  0.00     0.161 A
ATOM      2  N   UNL     1      32.520   9.076  -3.139  1.00  0.00    -0.227 NA
ATOM      3  C   UNL     1      31.508   8.533  -3.895  1.00  0.00     0.089 A
ATOM      4  C   UNL     1      31.039   7.215  -3.989  1.00  0.00     0.031 A
ATOM      5  C   UNL     1      29.970   6.936  -4.860  1.00  0.00     0.007 A
ATOM      6  C   UNL     1      29.380   7.947  -5.636  1.00  0.00    -0.032 A
ATOM      7  C   UNL     1      29.853   9.266  -5.545  1.00  0.00     0.033 A
ATOM      8  C   UNL     1      30.901   9.511  -4.663  1.00  0.00     0.066 A
ATOM      9  N   UNL     1      31.547  10.661  -4.319  1.00  0.00    -0.337 N
ATOM     10  H   UNL     1      31.274  11.590  -4.606  1.00  0.00     0.168 HD
ENDROOT
BRANCH   1  11
ATOM     11  C   UNL     1      33.574  11.412  -2.833  1.00  0.00     0.151 A
ATOM     12  C   UNL     1      33.572  12.848  -2.779  1.00  0.00     0.092 A
ATOM     13  C   UNL     1      34.832  13.165  -2.310  1.00  0.00     0.132 A
ATOM     14  N   UNL     1      35.462  11.990  -2.051  1.00  0.00    -0.283 N
ATOM     15  N   UNL     1      34.735  10.921  -2.358  1.00  0.00    -0.170 NA
ATOM     16  H   UNL     1      36.392  11.840  -1.673  1.00  0.00     0.189 HD
BRANCH  12  17
ATOM     17  N   UNL     1      32.700  13.886  -3.089  1.00  0.00    -0.304 N
ATOM     18  O   UNL     1      32.312  13.562  -5.339  1.00  0.00    -0.248 OA
ATOM     19  C   UNL     1      32.180  14.215  -4.313  1.00  0.00     0.319 C
ATOM     20  N   UNL     1      31.453  15.387  -4.268  1.00  0.00    -0.332 N
ATOM     21  H   UNL     1      32.257  14.328  -2.296  1.00  0.00     0.172 HD
ATOM     22  H   UNL     1      31.511  15.973  -3.448  1.00  0.00     0.165 HD
BRANCH  20  23
ATOM     23  C   UNL     1      30.689  15.884  -5.395  1.00  0.00     0.042 C
ATOM     24  C   UNL     1      31.451  16.780  -6.361  1.00  0.00     0.031 C
ATOM     25  C   UNL     1      30.408  17.375  -5.466  1.00  0.00     0.031 C
BRANCH  23  26
ATOM     26  C   UNL     1      29.733  14.848  -6.000  1.00  0.00     0.030 C
BRANCH  26  27
ATOM     27  C   UNL     1      28.614  14.316  -5.093  1.00  0.00     0.018 C
ATOM     28  G   UNL     1      28.692  12.804  -4.841  1.00  0.00     0.000 C
ENDBRANCH  26  27
ENDBRANCH  23  26
ENDBRANCH  20  23
ENDBRANCH  12  17
ENDBRANCH   1  11
BRANCH   6  29
ATOM     29  C   UNL     1      28.240   7.651  -6.589  1.00  0.00     0.120 C
BRANCH  29  30
ATOM     30  N   UNL     1      27.106   8.575  -6.363  1.00  0.00    -0.292 NA
ATOM     31  C   UNL     1      26.263   8.064  -5.255  1.00  0.00     0.113 C
ATOM     32  C   UNL     1      26.245   8.740  -7.558  1.00  0.00     0.084 C
ATOM     33  C   UNL     1      25.066   7.196  -5.711  1.00  0.00     0.175 C
ATOM     34  C   UNL     1      25.640   7.388  -8.016  1.00  0.00     0.179 C
ATOM     35  O   UNL     1      25.344   6.495  -6.927  1.00  0.00    -0.378 OA
BRANCH  32  36
ATOM     36  C   UNL     1      26.915   9.504  -8.722  1.00  0.00     0.037 C
BRANCH  36  37
ATOM     37  C   UNL     1      26.347  10.921  -8.895  1.00  0.00     0.082 C
BRANCH  37  38
ATOM     38  N   UNL     1      26.375  11.634  -7.610  1.00  0.00    -0.317 NA
ATOM     39  H   UNL     1      27.195  11.344  -7.079  1.00  0.00     0.122 HD
BRANCH  38  40
ATOM     40  C   UNL     1      26.426  13.087  -7.820  1.00  0.00     0.081 C
ATOM     41  G   UNL     1      25.342  13.794  -6.995  1.00  0.00     0.000 C
ENDBRANCH  38  40
ENDBRANCH  37  38
ENDBRANCH  36  37
ENDBRANCH  32  36
ENDBRANCH  29  30
ENDBRANCH   6  29
TORSDOF 0
ENDMDL
MODEL 5
REMARK VINA RESULT:      -7.6      2.376      8.157
REMARK SMILES O=C1Nc2c[nH]nc2-c2nc3ccc(cc3[nH]2)CN2CCOC[C@@H]2CCNCCCC2(CC2)N1
REMARK SMILES IDX 9 1 10 2 11 3 12 4 13 5 14 6 15 7 16 8 17 9 8 11 4 12 5 13
REMARK SMILES IDX 6 14 7 15 3 17 1 18 2 19 34 20 31 23 32 24 33 25 30 26 29 27
REMARK SMILES IDX 18 29 19 30 20 31 24 32 21 33 23 34 22 35 25 36 26 37 27 38
REMARK SMILES IDX 28 40
REMARK H PARENT 17 10 6 16 3 21 34 22 27 39
REMARK Flexibility Score:   58.900
ROOT
ATOM      1  C   UNL     1      32.874  12.245  -3.569  1.00  0.00     0.161 A
ATOM      2  N   UNL     1      33.535  13.326  -3.178  1.00  0.00    -0.227 NA
ATOM      3  C   UNL     1      32.919  14.391  -3.791  1.00  0.00     0.089 A
ATOM      4  C   UNL     1      33.201  15.764  -3.747  1.00  0.00     0.031 A
ATOM      5  C   UNL     1      32.391  16.646  -4.485  1.00  0.00     0.007 A
ATOM      6  C   UNL     1      31.309  16.178  -5.246  1.00  0.00    -0.032 A
ATOM      7  C   UNL     1      31.023  14.804  -5.287  1.00  0.00     0.033 A
ATOM      8  C   UNL     1      31.852  13.957  -4.558  1.00  0.00     0.066 A
ATOM      9  N   UNL     1      31.869  12.600  -4.423  1.00  0.00    -0.337 N
ATOM     10  H   UNL     1      31.297  11.955  -4.949  1.00  0.00     0.168 HD
ENDROOT
BRANCH   1  11
ATOM     11  C   UNL     1      33.180  10.772  -3.073  1.00  0.00     0.151 A
ATOM     12  C   UNL     1      32.356   9.598  -2.984  1.00  0.00     0.092 A
ATOM     13  C   UNL     1      33.147   8.687  -2.309  1.00  0.00     0.132 A
ATOM     14  N   UNL     1      34.349   9.287  -2.105  1.00  0.00    -0.283 N
ATOM     15  N   UNL     1      34.398  10.538  -2.548  1.00  0.00    -0.170 NA
ATOM     16  H   UNL     1      35.179   8.906  -1.661  1.00  0.00     0.189 HD
BRANCH  12  17
ATOM     17  N   UNL     1      31.071   9.214  -3.350  1.00  0.00    -0.304 N
ATOM     18  O   UNL     1      30.956   9.886  -5.554  1.00  0.00    -0.248 OA
ATOM     19  C   UNL     1      30.438   9.420  -4.548  1.00  0.00     0.319 C
ATOM     20  N   UNL     1      29.119   9.019  -4.512  1.00  0.00    -0.332 N
ATOM     21  H   UNL     1      30.627   8.550  -2.733  1.00  0.00     0.172 HD
ATOM     22  H   UNL     1      28.694   8.800  -3.622  1.00  0.00     0.165 HD
BRANCH  20  23
ATOM     23  C   UNL     1      28.266   9.004  -5.684  1.00  0.00     0.042 C
ATOM     24  C   UNL     1      27.264   7.861  -5.754  1.00  0.00     0.031 C
ATOM     25  C   UNL     1      28.440   7.872  -6.681  1.00  0.00     0.031 C
BRANCH  23  26
ATOM     26  C   UNL     1      27.780  10.395  -6.111  1.00  0.00     0.030 C
BRANCH  26  27
ATOM     27  C   UNL     1      27.676  11.467  -5.017  1.00  0.00     0.018 C
ATOM     28  G   UNL     1      27.973  12.888  -5.516  1.00  0.00     0.000 C
ENDBRANCH  26  27
ENDBRANCH  23  26
ENDBRANCH  20  23
ENDBRANCH  12  17
ENDBRANCH   1  11
BRANCH   6  29
ATOM     29  C   UNL     1      30.421  17.124  -6.030  1.00  0.00     0.120 C
BRANCH  29  30
ATOM     30  N   UNL     1      29.653  18.005  -5.123  1.00  0.00    -0.292 NA
ATOM     31  C   UNL     1      28.348  17.377  -4.806  1.00  0.00     0.113 C
ATOM     32  C   UNL     1      29.391  19.345  -5.701  1.00  0.00     0.084 C
ATOM     33  C   UNL     1      27.185  17.821  -5.724  1.00  0.00     0.175 C
ATOM     34  C   UNL     1      28.586  19.247  -7.022  1.00  0.00     0.179 C
ATOM     35  O   UNL     1      27.639  18.163  -7.038  1.00  0.00    -0.378 OA
BRANCH  32  36
ATOM     36  C   UNL     1      30.648  20.230  -5.848  1.00  0.00     0.037 C
BRANCH  36  37
ATOM     37  C   UNL     1      31.447  20.332  -4.539  1.00  0.00     0.082 C
BRANCH  37  38
ATOM     38  N   UNL     1      32.881  20.167  -4.811  1.00  0.00    -0.317 NA
ATOM     39  H   UNL     1      33.188  19.256  -4.470  1.00  0.00     0.122 HD
BRANCH  38  40
ATOM     40  C   UNL     1      33.156  20.260  -6.250  1.00  0.00     0.081 C
ATOM     41  G   UNL     1      34.018  19.079  -6.717  1.00  0.00     0.000 C
ENDBRANCH  38  40
ENDBRANCH  37  38
ENDBRANCH  36  37
ENDBRANCH  32  36
ENDBRANCH  29  30
ENDBRANCH   6  29
TORSDOF 0
ENDMDL
MODEL 6
REMARK VINA RESULT:      -7.6      2.225      8.973
REMARK SMILES O=C1Nc2c[nH]nc2-c2nc3ccc(cc3[nH]2)CN2CCOC[C@@H]2CCNCCCC2(CC2)N1
REMARK SMILES IDX 9 1 10 2 11 3 12 4 13 5 14 6 15 7 16 8 17 9 8 11 4 12 5 13
REMARK SMILES IDX 6 14 7 15 3 17 1 18 2 19 34 20 31 23 32 24 33 25 30 26 29 27
REMARK SMILES IDX 18 29 19 30 20 31 24 32 21 33 23 34 22 35 25 36 26 37 27 38
REMARK SMILES IDX 28 40
REMARK H PARENT 17 10 6 16 3 21 34 22 27 39
REMARK Flexibility Score:   58.900
ROOT
ATOM      1  C   UNL     1      31.694  11.551  -4.129  1.00  0.00     0.161 A
ATOM      2  N   UNL     1      32.560  12.337  -3.503  1.00  0.00    -0.227 NA
ATOM      3  C   UNL     1      32.302  13.613  -3.945  1.00  0.00     0.089 A
ATOM      4  C   UNL     1      32.916  14.835  -3.629  1.00  0.00     0.031 A
ATOM      5  C   UNL     1      32.439  16.010  -4.239  1.00  0.00     0.007 A
ATOM      6  C   UNL     1      31.363  15.979  -5.139  1.00  0.00    -0.032 A
ATOM      7  C   UNL     1      30.745  14.757  -5.452  1.00  0.00     0.033 A
ATOM      8  C   UNL     1      31.250  13.611  -4.844  1.00  0.00     0.066 A
ATOM      9  N   UNL     1      30.910  12.296  -4.962  1.00  0.00    -0.337 N
ATOM     10  H   UNL     1      30.254  11.923  -5.633  1.00  0.00     0.168 HD
ENDROOT
BRANCH   1  11
ATOM     11  C   UNL     1      31.563   9.990  -3.897  1.00  0.00     0.151 A
ATOM     12  C   UNL     1      30.879   8.963  -4.634  1.00  0.00     0.092 A
ATOM     13  C   UNL     1      30.993   7.844  -3.831  1.00  0.00     0.132 A
ATOM     14  N   UNL     1      31.750   8.205  -2.762  1.00  0.00    -0.283 N
ATOM     15  N   UNL     1      32.103   9.485  -2.771  1.00  0.00    -0.170 NA
ATOM     16  H   UNL     1      32.056   7.632  -1.982  1.00  0.00     0.189 HD
BRANCH  12  17
ATOM     17  N   UNL     1      30.173   8.852  -5.827  1.00  0.00    -0.304 N
ATOM     18  O   UNL     1      28.083   9.638  -5.250  1.00  0.00    -0.248 OA
ATOM     19  C   UNL     1      28.851   9.127  -6.054  1.00  0.00     0.319 C
ATOM     20  N   UNL     1      28.460   8.776  -7.330  1.00  0.00    -0.332 N
ATOM     21  H   UNL     1      30.741   8.734  -6.654  1.00  0.00     0.172 HD
ATOM     22  H   UNL     1      29.075   8.209  -7.896  1.00  0.00     0.165 HD
BRANCH  20  23
ATOM     23  C   UNL     1      27.150   9.084  -7.867  1.00  0.00     0.042 C
ATOM     24  C   UNL     1      27.142   9.875  -9.167  1.00  0.00     0.031 C
ATOM     25  C   UNL     1      26.712  10.538  -7.895  1.00  0.00     0.031 C
BRANCH  23  26
ATOM     26  C   UNL     1      26.141   7.936  -7.734  1.00  0.00     0.030 C
BRANCH  26  27
ATOM     27  C   UNL     1      25.527   7.701  -6.347  1.00  0.00     0.018 C
ATOM     28  G   UNL     1      24.094   7.153  -6.391  1.00  0.00     0.000 C
ENDBRANCH  26  27
ENDBRANCH  23  26
ENDBRANCH  20  23
ENDBRANCH  12  17
ENDBRANCH   1  11
BRANCH   6  29
ATOM     29  C   UNL     1      30.833  17.242  -5.786  1.00  0.00     0.120 C
BRANCH  29  30
ATOM     30  N   UNL     1      30.149  18.101  -4.794  1.00  0.00    -0.292 NA
ATOM     31  C   UNL     1      28.693  17.823  -4.816  1.00  0.00     0.113 C
ATOM     32  C   UNL     1      30.346  19.548  -5.046  1.00  0.00     0.084 C
ATOM     33  C   UNL     1      27.877  18.763  -5.734  1.00  0.00     0.175 C
ATOM     34  C   UNL     1      29.813  19.961  -6.441  1.00  0.00     0.179 C
ATOM     35  O   UNL     1      28.646  19.223  -6.850  1.00  0.00    -0.378 OA
BRANCH  32  36
ATOM     36  C   UNL     1      31.789  20.045  -4.802  1.00  0.00     0.037 C
BRANCH  36  37
ATOM     37  C   UNL     1      32.338  20.851  -5.989  1.00  0.00     0.082 C
BRANCH  37  38
ATOM     38  N   UNL     1      33.122  19.977  -6.873  1.00  0.00    -0.317 NA
ATOM     39  H   UNL     1      33.726  20.547  -7.465  1.00  0.00     0.122 HD
BRANCH  38  40
ATOM     40  C   UNL     1      33.949  19.049  -6.092  1.00  0.00     0.081 C
ATOM     41  G   UNL     1      34.286  17.797  -6.914  1.00  0.00     0.000 C
ENDBRANCH  38  40
ENDBRANCH  37  38
ENDBRANCH  36  37
ENDBRANCH  32  36
ENDBRANCH  29  30
ENDBRANCH   6  29
TORSDOF 0
ENDMDL
MODEL 7
REMARK VINA RESULT:      -7.6      1.148      1.315
REMARK SMILES O=C1Nc2c[nH]nc2-c2nc3ccc(cc3[nH]2)CN2CCOC[C@@H]2CCNCCCC2(CC2)N1
REMARK SMILES IDX 9 1 10 2 11 3 12 4 13 5 14 6 15 7 16 8 17 9 8 11 4 12 5 13
REMARK SMILES IDX 6 14 7 15 3 17 1 18 2 19 34 20 31 23 32 24 33 25 30 26 29 27
REMARK SMILES IDX 18 29 19 30 20 31 24 32 21 33 23 34 22 35 25 36 26 37 27 38
REMARK SMILES IDX 28 40
REMARK H PARENT 17 10 6 16 3 21 34 22 27 39
REMARK Flexibility Score:   58.900
ROOT
ATOM      1  C   UNL     1      32.065  11.600  -3.619  1.00  0.00     0.161 A
ATOM      2  N   UNL     1      32.400  10.363  -3.276  1.00  0.00    -0.227 NA
ATOM      3  C   UNL     1      31.508   9.537  -3.916  1.00  0.00     0.089 A
ATOM      4  C   UNL     1      31.382   8.139  -3.907  1.00  0.00     0.031 A
ATOM      5  C   UNL     1      30.360   7.546  -4.670  1.00  0.00     0.007 A
ATOM      6  C   UNL     1      29.481   8.323  -5.441  1.00  0.00    -0.032 A
ATOM      7  C   UNL     1      29.609   9.722  -5.454  1.00  0.00     0.033 A
ATOM      8  C   UNL     1      30.621  10.278  -4.677  1.00  0.00     0.066 A
ATOM      9  N   UNL     1      30.977  11.574  -4.444  1.00  0.00    -0.337 N
ATOM     10  H   UNL     1      30.459  12.384  -4.751  1.00  0.00     0.168 HD
ENDROOT
BRANCH   1  11
ATOM     11  C   UNL     1      32.848  12.903  -3.173  1.00  0.00     0.151 A
ATOM     12  C   UNL     1      32.438  14.275  -3.048  1.00  0.00     0.092 A
ATOM     13  C   UNL     1      33.616  14.952  -2.792  1.00  0.00     0.132 A
ATOM     14  N   UNL     1      34.596  14.015  -2.707  1.00  0.00    -0.283 N
ATOM     15  N   UNL     1      34.168  12.778  -2.934  1.00  0.00    -0.170 NA
ATOM     16  H   UNL     1      35.582  14.148  -2.506  1.00  0.00     0.189 HD
BRANCH  12  17
ATOM     17  N   UNL     1      31.261  15.008  -3.147  1.00  0.00    -0.304 N
ATOM     18  O   UNL     1      31.299  15.724  -5.339  1.00  0.00    -0.248 OA
ATOM     19  C   UNL     1      30.797  15.716  -4.223  1.00  0.00     0.319 C
ATOM     20  N   UNL     1      29.656  16.431  -3.920  1.00  0.00    -0.332 N
ATOM     21  H   UNL     1      30.590  14.847  -2.410  1.00  0.00     0.172 HD
ATOM     22  H   UNL     1      29.376  16.527  -2.955  1.00  0.00     0.165 HD
BRANCH  20  23
ATOM     23  C   UNL     1      28.890  17.155  -4.915  1.00  0.00     0.042 C
ATOM     24  C   UNL     1      27.401  16.845  -4.952  1.00  0.00     0.031 C
ATOM     25  C   UNL     1      28.284  16.367  -6.064  1.00  0.00     0.031 C
BRANCH  23  26
ATOM     26  C   UNL     1      29.309  18.623  -5.069  1.00  0.00     0.030 C
BRANCH  26  27
ATOM     27  C   UNL     1      30.380  18.938  -6.123  1.00  0.00     0.018 C
ATOM     28  G   UNL     1      30.922  20.371  -6.041  1.00  0.00     0.000 C
ENDBRANCH  26  27
ENDBRANCH  23  26
ENDBRANCH  20  23
ENDBRANCH  12  17
ENDBRANCH   1  11
BRANCH   6  29
ATOM     29  C   UNL     1      28.389   7.691  -6.279  1.00  0.00     0.120 C
BRANCH  29  30
ATOM     30  N   UNL     1      27.152   8.504  -6.242  1.00  0.00    -0.292 NA
ATOM     31  C   UNL     1      26.223   7.951  -5.227  1.00  0.00     0.113 C
ATOM     32  C   UNL     1      26.444   8.540  -7.544  1.00  0.00     0.084 C
ATOM     33  C   UNL     1      25.184   6.953  -5.789  1.00  0.00     0.175 C
ATOM     34  C   UNL     1      26.034   7.120  -8.009  1.00  0.00     0.179 C
ATOM     35  O   UNL     1      25.684   6.240  -6.925  1.00  0.00    -0.378 OA
BRANCH  32  36
ATOM     36  C   UNL     1      27.186   9.326  -8.649  1.00  0.00     0.037 C
BRANCH  36  37
ATOM     37  C   UNL     1      26.823  10.819  -8.648  1.00  0.00     0.082 C
BRANCH  37  38
ATOM     38  N   UNL     1      26.489  11.255  -7.286  1.00  0.00    -0.317 NA
ATOM     39  H   UNL     1      26.934  10.634  -6.611  1.00  0.00     0.122 HD
BRANCH  38  40
ATOM     40  C   UNL     1      26.947  12.630  -7.050  1.00  0.00     0.081 C
ATOM     41  G   UNL     1      27.583  12.761  -5.659  1.00  0.00     0.000 C
ENDBRANCH  38  40
ENDBRANCH  37  38
ENDBRANCH  36  37
ENDBRANCH  32  36
ENDBRANCH  29  30
ENDBRANCH   6  29
TORSDOF 0
ENDMDL
MODEL 8
REMARK VINA RESULT:      -7.6      1.775      8.480
REMARK SMILES O=C1Nc2c[nH]nc2-c2nc3ccc(cc3[nH]2)CN2CCOC[C@@H]2CCNCCCC2(CC2)N1
REMARK SMILES IDX 9 1 10 2 11 3 12 4 13 5 14 6 15 7 16 8 17 9 8 11 4 12 5 13
REMARK SMILES IDX 6 14 7 15 3 17 1 18 2 19 34 20 31 23 32 24 33 25 30 26 29 27
REMARK SMILES IDX 18 29 19 30 20 31 24 32 21 33 23 34 22 35 25 36 26 37 27 38
REMARK SMILES IDX 28 40
REMARK H PARENT 17 10 6 16 3 21 34 22 27 39
REMARK Flexibility Score:   58.900
ROOT
ATOM      1  C   UNL     1      31.582  10.375  -4.218  1.00  0.00     0.161 A
ATOM      2  N   UNL     1      32.599  10.671  -3.420  1.00  0.00    -0.227 NA
ATOM      3  C   UNL     1      32.726  12.039  -3.457  1.00  0.00     0.089 A
ATOM      4  C   UNL     1      33.636  12.894  -2.818  1.00  0.00     0.031 A
ATOM      5  C   UNL     1      33.533  14.280  -3.039  1.00  0.00     0.007 A
ATOM      6  C   UNL     1      32.536  14.814  -3.871  1.00  0.00    -0.032 A
ATOM      7  C   UNL     1      31.622  13.958  -4.507  1.00  0.00     0.033 A
ATOM      8  C   UNL     1      31.760  12.592  -4.280  1.00  0.00     0.066 A
ATOM      9  N   UNL     1      31.076  11.518  -4.768  1.00  0.00    -0.337 N
ATOM     10  H   UNL     1      30.377  11.554  -5.495  1.00  0.00     0.168 HD
ENDROOT
BRANCH   1  11
ATOM     11  C   UNL     1      31.014   8.914  -4.450  1.00  0.00     0.151 A
ATOM     12  C   UNL     1      30.152   8.369  -5.463  1.00  0.00     0.092 A
ATOM     13  C   UNL     1      29.884   7.089  -5.017  1.00  0.00     0.132 A
ATOM     14  N   UNL     1      30.605   6.910  -3.879  1.00  0.00    -0.283 N
ATOM     15  N   UNL     1      31.290   7.988  -3.512  1.00  0.00    -0.170 NA
ATOM     16  H   UNL     1      30.671   6.083  -3.294  1.00  0.00     0.189 HD
BRANCH  12  17
ATOM     17  N   UNL     1      29.559   8.795  -6.646  1.00  0.00    -0.304 N
ATOM     18  O   UNL     1      27.343   9.017  -6.045  1.00  0.00    -0.248 OA
ATOM     19  C   UNL     1      28.232   9.032  -6.887  1.00  0.00     0.319 C
ATOM     20  N   UNL     1      27.989   9.317  -8.215  1.00  0.00    -0.332 N
ATOM     21  H   UNL     1      30.197   9.146  -7.346  1.00  0.00     0.172 HD
ATOM     22  H   UNL     1      28.717   9.155  -8.895  1.00  0.00     0.165 HD
BRANCH  20  23
ATOM     23  C   UNL     1      26.692   9.735  -8.708  1.00  0.00     0.042 C
ATOM     24  C   UNL     1      26.710  10.853  -9.739  1.00  0.00     0.031 C
ATOM     25  C   UNL     1      26.209  11.132  -8.356  1.00  0.00     0.031 C
BRANCH  23  26
ATOM     26  C   UNL     1      25.716   8.575  -8.943  1.00  0.00     0.030 C
BRANCH  26  27
ATOM     27  C   UNL     1      24.421   8.572  -8.119  1.00  0.00     0.018 C
ATOM     28  G   UNL     1      24.349   7.437  -7.087  1.00  0.00     0.000 C
ENDBRANCH  26  27
ENDBRANCH  23  26
ENDBRANCH  20  23
ENDBRANCH  12  17
ENDBRANCH   1  11
BRANCH   6  29
ATOM     29  C   UNL     1      32.408  16.306  -4.099  1.00  0.00     0.120 C
BRANCH  29  30
ATOM     30  N   UNL     1      31.722  16.591  -5.379  1.00  0.00    -0.292 NA
ATOM     31  C   UNL     1      32.696  17.137  -6.355  1.00  0.00     0.113 C
ATOM     32  C   UNL     1      30.614  17.566  -5.239  1.00  0.00     0.084 C
ATOM     33  C   UNL     1      32.759  18.681  -6.398  1.00  0.00     0.175 C
ATOM     34  C   UNL     1      31.117  18.923  -4.687  1.00  0.00     0.179 C
ATOM     35  O   UNL     1      32.443  19.268  -5.131  1.00  0.00    -0.378 OA
BRANCH  32  36
ATOM     36  C   UNL     1      29.394  17.032  -4.456  1.00  0.00     0.037 C
BRANCH  36  37
ATOM     37  C   UNL     1      28.323  16.433  -5.379  1.00  0.00     0.082 C
BRANCH  37  38
ATOM     38  N   UNL     1      27.468  15.507  -4.624  1.00  0.00    -0.317 NA
ATOM     39  H   UNL     1      26.518  15.545  -4.993  1.00  0.00     0.122 HD
BRANCH  38  40
ATOM     40  C   UNL     1      27.969  14.130  -4.726  1.00  0.00     0.081 C
ATOM     41  G   UNL     1      28.240  13.757  -6.190  1.00  0.00     0.000 C
ENDBRANCH  38  40
ENDBRANCH  37  38
ENDBRANCH  36  37
ENDBRANCH  32  36
ENDBRANCH  29  30
ENDBRANCH   6  29
TORSDOF 0
ENDMDL
MODEL 9
REMARK VINA RESULT:      -7.6      1.895      8.680
REMARK SMILES O=C1Nc2c[nH]nc2-c2nc3ccc(cc3[nH]2)CN2CCOC[C@@H]2CCNCCCC2(CC2)N1
REMARK SMILES IDX 9 1 10 2 11 3 12 4 13 5 14 6 15 7 16 8 17 9 8 11 4 12 5 13
REMARK SMILES IDX 6 14 7 15 3 17 1 18 2 19 34 20 31 23 32 24 33 25 30 26 29 27
REMARK SMILES IDX 18 29 19 30 20 31 24 32 21 33 23 34 22 35 25 36 26 37 27 38
REMARK SMILES IDX 28 40
REMARK H PARENT 17 10 6 16 3 21 34 22 27 39
REMARK Flexibility Score:   58.900
ROOT
ATOM      1  C   UNL     1      31.690  10.921  -4.019  1.00  0.00     0.161 A
ATOM      2  N   UNL     1      32.784  11.343  -3.399  1.00  0.00    -0.227 NA
ATOM      3  C   UNL     1      32.751  12.716  -3.465  1.00  0.00     0.089 A
ATOM      4  C   UNL     1      33.653  13.679  -2.989  1.00  0.00     0.031 A
ATOM      5  C   UNL     1      33.364  15.040  -3.198  1.00  0.00     0.007 A
ATOM      6  C   UNL     1      32.192  15.443  -3.858  1.00  0.00    -0.032 A
ATOM      7  C   UNL     1      31.287  14.479  -4.331  1.00  0.00     0.033 A
ATOM      8  C   UNL     1      31.610  13.142  -4.122  1.00  0.00     0.066 A
ATOM      9  N   UNL     1      30.979  11.989  -4.485  1.00  0.00    -0.337 N
ATOM     10  H   UNL     1      30.172  11.932  -5.088  1.00  0.00     0.168 HD
ENDROOT
BRANCH   1  11
ATOM     11  C   UNL     1      31.257   9.402  -4.147  1.00  0.00     0.151 A
ATOM     12  C   UNL     1      30.416   8.720  -5.092  1.00  0.00     0.092 A
ATOM     13  C   UNL     1      30.287   7.448  -4.565  1.00  0.00     0.132 A
ATOM     14  N   UNL     1      31.061   7.406  -3.449  1.00  0.00    -0.283 N
ATOM     15  N   UNL     1      31.652   8.563  -3.171  1.00  0.00    -0.170 NA
ATOM     16  H   UNL     1      31.226   6.624  -2.823  1.00  0.00     0.189 HD
BRANCH  12  17
ATOM     17  N   UNL     1      29.744   9.018  -6.272  1.00  0.00    -0.304 N
ATOM     18  O   UNL     1      27.618   9.515  -5.527  1.00  0.00    -0.248 OA
ATOM     19  C   UNL     1      28.420   9.330  -6.433  1.00  0.00     0.319 C
ATOM     20  N   UNL     1      28.072   9.439  -7.764  1.00  0.00    -0.332 N
ATOM     21  H   UNL     1      30.335   9.207  -7.069  1.00  0.00     0.172 HD
ATOM     22  H   UNL     1      28.717   9.116  -8.470  1.00  0.00     0.165 HD
BRANCH  20  23
ATOM     23  C   UNL     1      26.767   9.890  -8.203  1.00  0.00     0.042 C
ATOM     24  C   UNL     1      26.760  10.774  -9.442  1.00  0.00     0.031 C
ATOM     25  C   UNL     1      26.452  11.373  -8.105  1.00  0.00     0.031 C
BRANCH  23  26
ATOM     26  C   UNL     1      25.673   8.820  -8.095  1.00  0.00     0.030 C
BRANCH  26  27
ATOM     27  C   UNL     1      26.059   7.384  -8.475  1.00  0.00     0.018 C
ATOM     28  G   UNL     1      24.980   6.648  -9.281  1.00  0.00     0.000 C
ENDBRANCH  26  27
ENDBRANCH  23  26
ENDBRANCH  20  23
ENDBRANCH  12  17
ENDBRANCH   1  11
BRANCH   6  29
ATOM     29  C   UNL     1      31.865  16.907  -4.071  1.00  0.00     0.120 C
BRANCH  29  30
ATOM     30  N   UNL     1      32.001  17.280  -5.497  1.00  0.00    -0.292 NA
ATOM     31  C   UNL     1      33.302  17.959  -5.711  1.00  0.00     0.113 C
ATOM     32  C   UNL     1      30.926  18.186  -5.964  1.00  0.00     0.084 C
ATOM     33  C   UNL     1      33.237  19.502  -5.631  1.00  0.00     0.175 C
ATOM     34  C   UNL     1      30.902  19.507  -5.155  1.00  0.00     0.179 C
ATOM     35  O   UNL     1      32.208  19.951  -4.744  1.00  0.00    -0.378 OA
BRANCH  32  36
ATOM     36  C   UNL     1      29.531  17.527  -6.047  1.00  0.00     0.037 C
BRANCH  36  37
ATOM     37  C   UNL     1      28.623  17.931  -4.875  1.00  0.00     0.082 C
BRANCH  37  38
ATOM     38  N   UNL     1      27.702  16.833  -4.549  1.00  0.00    -0.317 NA
ATOM     39  H   UNL     1      26.743  17.130  -4.726  1.00  0.00     0.122 HD
BRANCH  38  40
ATOM     40  C   UNL     1      27.996  15.645  -5.360  1.00  0.00     0.081 C
ATOM     41  G   UNL     1      27.207  14.430  -4.851  1.00  0.00     0.000 C
ENDBRANCH  38  40
ENDBRANCH  37  38
ENDBRANCH  36  37
ENDBRANCH  32  36
ENDBRANCH  29  30
ENDBRANCH   6  29
TORSDOF 0
ENDMDL
