MODEL 1
REMARK VINA RESULT:     -10.7      0.000      0.000
REMARK SMILES Fc1cc2cc(F)c1CN1CCO[C@H](CCCC3(CCNCC3)n3cc(cn3)-c3cnc4cccc-2c4n3)C1
REMARK SMILES IDX 29 1 30 2 31 3 32 4 33 5 34 6 35 7 36 8 37 9 38 10 4 11 2 12
REMARK SMILES IDX 3 13 8 14 6 15 5 16 1 17 7 18 9 19 10 20 11 21 39 22 12 23
REMARK SMILES IDX 14 24 13 25 15 26 26 28 25 29 27 30 24 31 28 32 18 33 19 34
REMARK SMILES IDX 23 35 20 36 22 37 21 38 17 40 16 41
REMARK H PARENT 21 39
REMARK Flexibility Score:   65.900
ROOT
ATOM      1  C   UNL     1      32.062   9.407  -3.393  1.00  0.00     0.092 A
ATOM      2  C   UNL     1      32.899   8.452  -2.841  1.00  0.00     0.140 A
ATOM      3  N   UNL     1      34.032   8.767  -2.174  1.00  0.00    -0.252 NA
ATOM      4  C   UNL     1      34.328  10.075  -2.082  1.00  0.00     0.089 A
ATOM      5  C   UNL     1      35.492  10.437  -1.419  1.00  0.00     0.030 A
ATOM      6  C   UNL     1      35.875  11.768  -1.296  1.00  0.00     0.003 A
ATOM      7  C   UNL     1      35.080  12.759  -1.853  1.00  0.00     0.011 A
ATOM      8  C   UNL     1      33.892  12.423  -2.529  1.00  0.00     0.010 A
ATOM      9  C   UNL     1      33.492  11.076  -2.645  1.00  0.00     0.097 A
ATOM     10  N   UNL     1      32.345  10.726  -3.288  1.00  0.00    -0.244 NA
ENDROOT
BRANCH   8  11
ATOM     11  C   UNL     1      33.091  13.501  -3.124  1.00  0.00    -0.010 A
ATOM     12  C   UNL     1      31.495  15.308  -2.903  1.00  0.00     0.131 A
ATOM     13  C   UNL     1      32.298  14.330  -2.321  1.00  0.00     0.048 A
ATOM     14  C   UNL     1      31.449  15.491  -4.287  1.00  0.00     0.038 A
ATOM     15  C   UNL     1      32.274  14.689  -5.075  1.00  0.00     0.131 A
ATOM     16  C   UNL     1      33.086  13.707  -4.511  1.00  0.00     0.048 A
ATOM     17  F   UNL     1      30.721  16.058  -2.105  1.00  0.00    -0.207 F
ATOM     18  F   UNL     1      32.283  14.841  -6.407  1.00  0.00    -0.207 F
BRANCH  14  19
ATOM     19  C   UNL     1      30.465  16.448  -4.908  1.00  0.00     0.126 C
BRANCH  19  20
ATOM     20  N   UNL     1      30.727  17.853  -4.547  1.00  0.00    -0.294 NA
ATOM     21  C   UNL     1      29.665  18.760  -5.025  1.00  0.00     0.113 C
ATOM     22  C   UNL     1      32.052  18.309  -5.019  1.00  0.00     0.117 C
ATOM     23  C   UNL     1      30.053  19.540  -6.291  1.00  0.00     0.176 C
ATOM     24  C   UNL     1      32.142  19.845  -5.134  1.00  0.00     0.132 C
ATOM     25  O   UNL     1      31.228  20.346  -6.131  1.00  0.00    -0.376 OA
BRANCH  24  26
ATOM     26  C   UNL     1      33.552  20.291  -5.551  1.00  0.00     0.033 C
ATOM     27  G   UNL     1      33.917  21.704  -5.072  1.00  0.00     0.000 C
ENDBRANCH  24  26
ENDBRANCH  19  20
ENDBRANCH  14  19
ENDBRANCH   8  11
BRANCH   1  28
ATOM     28  C   UNL     1      30.872   9.028  -4.125  1.00  0.00     0.040 A
ATOM     29  C   UNL     1      30.507   7.740  -4.463  1.00  0.00     0.119 A
ATOM     30  C   UNL     1      29.865   9.828  -4.694  1.00  0.00     0.145 A
ATOM     31  N   UNL     1      29.334   7.827  -5.175  1.00  0.00    -0.266 N
ATOM     32  N   UNL     1      28.952   9.116  -5.351  1.00  0.00    -0.180 NA
BRANCH  31  33
ATOM     33  C   UNL     1      28.610   6.757  -5.904  1.00  0.00     0.065 C
ATOM     34  C   UNL     1      27.098   7.150  -5.916  1.00  0.00     0.046 C
ATOM     35  C   UNL     1      28.785   5.382  -5.180  1.00  0.00     0.046 C
ATOM     36  C   UNL     1      26.311   6.429  -4.827  1.00  0.00     0.083 C
ATOM     37  C   UNL     1      27.614   4.443  -5.453  1.00  0.00     0.083 C
ATOM     38  N   UNL     1      26.319   4.981  -5.038  1.00  0.00    -0.317 NA
ATOM     39  H   UNL     1      26.012   4.524  -4.178  1.00  0.00     0.122 HD
BRANCH  33  40
ATOM     40  C   UNL     1      29.056   6.629  -7.401  1.00  0.00     0.031 C
BRANCH  40  41
ATOM     41  C   UNL     1      28.080   7.134  -8.476  1.00  0.00     0.005 C
ATOM     42  G   UNL     1      28.600   8.437  -9.101  1.00  0.00     0.000 C
ENDBRANCH  40  41
ENDBRANCH  33  40
ENDBRANCH  31  33
ENDBRANCH   1  28
TORSDOF 0
ENDMDL
MODEL 2
REMARK VINA RESULT:     -10.6      0.999      1.673
REMARK SMILES Fc1cc2cc(F)c1CN1CCO[C@H](CCCC3(CCNCC3)n3cc(cn3)-c3cnc4cccc-2c4n3)C1
REMARK SMILES IDX 29 1 30 2 31 3 32 4 33 5 34 6 35 7 36 8 37 9 38 10 4 11 2 12
REMARK SMILES IDX 3 13 8 14 6 15 5 16 1 17 7 18 9 19 10 20 11 21 39 22 12 23
REMARK SMILES IDX 14 24 13 25 15 26 26 28 25 29 27 30 24 31 28 32 18 33 19 34
REMARK SMILES IDX 23 35 20 36 22 37 21 38 17 40 16 41
REMARK H PARENT 21 39
REMARK Flexibility Score:   65.900
ROOT
ATOM      1  C   UNL     1      31.567   9.816  -3.627  1.00  0.00     0.092 A
ATOM      2  C   UNL     1      32.376   8.794  -3.157  1.00  0.00     0.140 A
ATOM      3  N   UNL     1      33.568   9.019  -2.561  1.00  0.00    -0.252 NA
ATOM      4  C   UNL     1      33.951  10.303  -2.455  1.00  0.00     0.089 A
ATOM      5  C   UNL     1      35.177  10.573  -1.863  1.00  0.00     0.030 A
ATOM      6  C   UNL     1      35.651  11.875  -1.731  1.00  0.00     0.003 A
ATOM      7  C   UNL     1      34.885  12.928  -2.207  1.00  0.00     0.011 A
ATOM      8  C   UNL     1      33.636  12.687  -2.809  1.00  0.00     0.010 A
ATOM      9  C   UNL     1      33.146  11.371  -2.933  1.00  0.00     0.097 A
ATOM     10  N   UNL     1      31.938  11.111  -3.506  1.00  0.00    -0.244 NA
ENDROOT
BRANCH   8  11
ATOM     11  C   UNL     1      32.867  13.829  -3.320  1.00  0.00    -0.010 A
ATOM     12  C   UNL     1      32.171  15.250  -5.152  1.00  0.00     0.131 A
ATOM     13  C   UNL     1      32.853  14.128  -4.688  1.00  0.00     0.048 A
ATOM     14  C   UNL     1      31.491  16.106  -4.283  1.00  0.00     0.038 A
ATOM     15  C   UNL     1      31.475  15.777  -2.928  1.00  0.00     0.131 A
ATOM     16  C   UNL     1      32.149  14.657  -2.445  1.00  0.00     0.048 A
ATOM     17  F   UNL     1      32.212  15.525  -6.464  1.00  0.00    -0.207 F
ATOM     18  F   UNL     1      30.816  16.554  -2.057  1.00  0.00    -0.207 F
BRANCH  14  19
ATOM     19  C   UNL     1      30.888  17.394  -4.781  1.00  0.00     0.126 C
BRANCH  19  20
ATOM     20  N   UNL     1      31.728  18.570  -4.487  1.00  0.00    -0.294 NA
ATOM     21  C   UNL     1      30.925  19.788  -4.264  1.00  0.00     0.113 C
ATOM     22  C   UNL     1      32.746  18.802  -5.534  1.00  0.00     0.117 C
ATOM     23  C   UNL     1      30.906  20.735  -5.475  1.00  0.00     0.176 C
ATOM     24  C   UNL     1      33.264  20.255  -5.544  1.00  0.00     0.132 C
ATOM     25  O   UNL     1      32.209  21.180  -5.876  1.00  0.00    -0.376 OA
BRANCH  24  26
ATOM     26  C   UNL     1      34.374  20.443  -6.589  1.00  0.00     0.033 C
ATOM     27  G   UNL     1      35.146  21.762  -6.436  1.00  0.00     0.000 C
ENDBRANCH  24  26
ENDBRANCH  19  20
ENDBRANCH  14  19
ENDBRANCH   8  11
BRANCH   1  28
ATOM     28  C   UNL     1      30.310   9.532  -4.285  1.00  0.00     0.040 A
ATOM     29  C   UNL     1      30.034   8.422  -5.059  1.00  0.00     0.119 A
ATOM     30  C   UNL     1      29.128  10.294  -4.350  1.00  0.00     0.145 A
ATOM     31  N   UNL     1      28.745   8.559  -5.516  1.00  0.00    -0.266 N
ATOM     32  N   UNL     1      28.193   9.729  -5.111  1.00  0.00    -0.180 NA
BRANCH  31  33
ATOM     33  C   UNL     1      28.021   7.730  -6.511  1.00  0.00     0.065 C
ATOM     34  C   UNL     1      26.515   8.142  -6.443  1.00  0.00     0.046 C
ATOM     35  C   UNL     1      28.161   6.211  -6.167  1.00  0.00     0.046 C
ATOM     36  C   UNL     1      25.696   7.177  -5.593  1.00  0.00     0.083 C
ATOM     37  C   UNL     1      26.982   5.398  -6.693  1.00  0.00     0.083 C
ATOM     38  N   UNL     1      25.686   5.834  -6.173  1.00  0.00    -0.317 NA
ATOM     39  H   UNL     1      25.355   5.175  -5.467  1.00  0.00     0.122 HD
BRANCH  33  40
ATOM     40  C   UNL     1      28.495   7.987  -7.982  1.00  0.00     0.031 C
BRANCH  40  41
ATOM     41  C   UNL     1      27.418   8.331  -9.023  1.00  0.00     0.005 C
ATOM     42  G   UNL     1      28.069   8.737 -10.353  1.00  0.00     0.000 C
ENDBRANCH  40  41
ENDBRANCH  33  40
ENDBRANCH  31  33
ENDBRANCH   1  28
TORSDOF 0
ENDMDL
MODEL 3
REMARK VINA RESULT:     -10.5      3.425      9.859
REMARK SMILES Fc1cc2cc(F)c1CN1CCO[C@H](CCCC3(CCNCC3)n3cc(cn3)-c3cnc4cccc-2c4n3)C1
REMARK SMILES IDX 29 1 30 2 31 3 32 4 33 5 34 6 35 7 36 8 37 9 38 10 4 11 2 12
REMARK SMILES IDX 3 13 8 14 6 15 5 16 1 17 7 18 9 19 10 20 11 21 39 22 12 23
REMARK SMILES IDX 14 24 13 25 15 26 26 28 25 29 27 30 24 31 28 32 18 33 19 34
REMARK SMILES IDX 23 35 20 36 22 37 21 38 17 40 16 41
REMARK H PARENT 21 39
REMARK Flexibility Score:   65.900
ROOT
ATOM      1  C   UNL     1      33.078  13.250  -3.777  1.00  0.00     0.092 A
ATOM      2  C   UNL     1      34.163  13.615  -2.998  1.00  0.00     0.140 A
ATOM      3  N   UNL     1      34.845  12.733  -2.232  1.00  0.00    -0.252 NA
ATOM      4  C   UNL     1      34.405  11.463  -2.246  1.00  0.00     0.089 A
ATOM      5  C   UNL     1      35.069  10.532  -1.460  1.00  0.00     0.030 A
ATOM      6  C   UNL     1      34.664   9.203  -1.407  1.00  0.00     0.003 A
ATOM      7  C   UNL     1      33.568   8.796  -2.153  1.00  0.00     0.011 A
ATOM      8  C   UNL     1      32.875   9.716  -2.963  1.00  0.00     0.010 A
ATOM      9  C   UNL     1      33.290  11.062  -3.029  1.00  0.00     0.097 A
ATOM     10  N   UNL     1      32.641  11.970  -3.809  1.00  0.00    -0.244 NA
ENDROOT
BRANCH   8  11
ATOM     11  C   UNL     1      31.706   9.249  -3.718  1.00  0.00    -0.010 A
ATOM     12  C   UNL     1      30.424   7.458  -4.723  1.00  0.00     0.131 A
ATOM     13  C   UNL     1      31.503   7.883  -3.951  1.00  0.00     0.048 A
ATOM     14  C   UNL     1      29.522   8.363  -5.285  1.00  0.00     0.038 A
ATOM     15  C   UNL     1      29.708   9.718  -5.013  1.00  0.00     0.131 A
ATOM     16  C   UNL     1      30.780  10.163  -4.242  1.00  0.00     0.048 A
ATOM     17  F   UNL     1      30.284   6.144  -4.955  1.00  0.00    -0.207 F
ATOM     18  F   UNL     1      28.857  10.626  -5.511  1.00  0.00    -0.207 F
BRANCH  14  19
ATOM     19  C   UNL     1      28.453   7.898  -6.239  1.00  0.00     0.126 C
BRANCH  19  20
ATOM     20  N   UNL     1      27.177   7.598  -5.565  1.00  0.00    -0.294 NA
ATOM     21  C   UNL     1      27.115   6.207  -5.077  1.00  0.00     0.113 C
ATOM     22  C   UNL     1      26.011   7.901  -6.423  1.00  0.00     0.117 C
ATOM     23  C   UNL     1      26.277   5.282  -5.975  1.00  0.00     0.176 C
ATOM     24  C   UNL     1      24.743   7.137  -5.989  1.00  0.00     0.132 C
ATOM     25  O   UNL     1      24.919   5.713  -6.133  1.00  0.00    -0.376 OA
BRANCH  24  26
ATOM     26  C   UNL     1      23.533   7.531  -6.850  1.00  0.00     0.033 C
ATOM     27  G   UNL     1      23.914   8.215  -8.171  1.00  0.00     0.000 C
ENDBRANCH  24  26
ENDBRANCH  19  20
ENDBRANCH  14  19
ENDBRANCH   8  11
BRANCH   1  28
ATOM     28  C   UNL     1      32.356  14.229  -4.561  1.00  0.00     0.040 A
ATOM     29  C   UNL     1      32.495  15.600  -4.470  1.00  0.00     0.119 A
ATOM     30  C   UNL     1      31.347  14.052  -5.526  1.00  0.00     0.145 A
ATOM     31  N   UNL     1      31.610  16.155  -5.363  1.00  0.00    -0.266 N
ATOM     32  N   UNL     1      30.873  15.207  -5.992  1.00  0.00    -0.180 NA
BRANCH  31  33
ATOM     33  C   UNL     1      31.246  17.582  -5.543  1.00  0.00     0.065 C
ATOM     34  C   UNL     1      32.269  18.194  -6.552  1.00  0.00     0.046 C
ATOM     35  C   UNL     1      31.336  18.348  -4.183  1.00  0.00     0.046 C
ATOM     36  C   UNL     1      33.388  18.952  -5.846  1.00  0.00     0.083 C
ATOM     37  C   UNL     1      31.622  19.833  -4.384  1.00  0.00     0.083 C
ATOM     38  N   UNL     1      32.865  20.101  -5.106  1.00  0.00    -0.317 NA
ATOM     39  H   UNL     1      33.583  20.424  -4.455  1.00  0.00     0.122 HD
BRANCH  33  40
ATOM     40  C   UNL     1      29.822  17.776  -6.168  1.00  0.00     0.031 C
BRANCH  40  41
ATOM     41  C   UNL     1      28.661  18.067  -5.204  1.00  0.00     0.005 C
ATOM     42  G   UNL     1      27.900  16.775  -4.876  1.00  0.00     0.000 C
ENDBRANCH  40  41
ENDBRANCH  33  40
ENDBRANCH  31  33
ENDBRANCH   1  28
TORSDOF 0
ENDMDL
MODEL 4
REMARK VINA RESULT:     -10.5      1.396      2.514
REMARK SMILES Fc1cc2cc(F)c1CN1CCO[C@H](CCCC3(CCNCC3)n3cc(cn3)-c3cnc4cccc-2c4n3)C1
REMARK SMILES IDX 29 1 30 2 31 3 32 4 33 5 34 6 35 7 36 8 37 9 38 10 4 11 2 12
REMARK SMILES IDX 3 13 8 14 6 15 5 16 1 17 7 18 9 19 10 20 11 21 39 22 12 23
REMARK SMILES IDX 14 24 13 25 15 26 26 28 25 29 27 30 24 31 28 32 18 33 19 34
REMARK SMILES IDX 23 35 20 36 22 37 21 38 17 40 16 41
REMARK H PARENT 21 39
REMARK Flexibility Score:   65.900
ROOT
ATOM      1  C   UNL     1      30.840   9.808  -4.070  1.00  0.00     0.092 A
ATOM      2  C   UNL     1      31.442   8.636  -3.643  1.00  0.00     0.140 A
ATOM      3  N   UNL     1      32.623   8.616  -2.985  1.00  0.00    -0.252 NA
ATOM      4  C   UNL     1      33.210   9.807  -2.774  1.00  0.00     0.089 A
ATOM      5  C   UNL     1      34.433   9.826  -2.117  1.00  0.00     0.030 A
ATOM      6  C   UNL     1      35.111  11.016  -1.875  1.00  0.00     0.003 A
ATOM      7  C   UNL     1      34.557  12.213  -2.305  1.00  0.00     0.011 A
ATOM      8  C   UNL     1      33.317  12.227  -2.971  1.00  0.00     0.010 A
ATOM      9  C   UNL     1      32.620  11.024  -3.207  1.00  0.00     0.097 A
ATOM     10  N   UNL     1      31.417  11.011  -3.844  1.00  0.00    -0.244 NA
ENDROOT
BRANCH   8  11
ATOM     11  C   UNL     1      32.777  13.514  -3.430  1.00  0.00    -0.010 A
ATOM     12  C   UNL     1      31.619  15.592  -2.983  1.00  0.00     0.131 A
ATOM     13  C   UNL     1      32.183  14.403  -2.526  1.00  0.00     0.048 A
ATOM     14  C   UNL     1      31.622  15.932  -4.338  1.00  0.00     0.038 A
ATOM     15  C   UNL     1      32.253  15.060  -5.224  1.00  0.00     0.131 A
ATOM     16  C   UNL     1      32.825  13.867  -4.786  1.00  0.00     0.048 A
ATOM     17  F   UNL     1      31.026  16.401  -2.093  1.00  0.00    -0.207 F
ATOM     18  F   UNL     1      32.304  15.353  -6.531  1.00  0.00    -0.207 F
BRANCH  14  19
ATOM     19  C   UNL     1      30.877  17.144  -4.832  1.00  0.00     0.126 C
BRANCH  19  20
ATOM     20  N   UNL     1      31.595  18.405  -4.567  1.00  0.00    -0.294 NA
ATOM     21  C   UNL     1      30.687  19.568  -4.533  1.00  0.00     0.113 C
ATOM     22  C   UNL     1      32.695  18.630  -5.529  1.00  0.00     0.117 C
ATOM     23  C   UNL     1      30.723  20.407  -5.821  1.00  0.00     0.176 C
ATOM     24  C   UNL     1      33.105  20.114  -5.622  1.00  0.00     0.132 C
ATOM     25  O   UNL     1      32.025  20.921  -6.135  1.00  0.00    -0.376 OA
BRANCH  24  26
ATOM     26  C   UNL     1      34.299  20.305  -6.569  1.00  0.00     0.033 C
ATOM     27  G   UNL     1      35.016  21.651  -6.392  1.00  0.00     0.000 C
ENDBRANCH  24  26
ENDBRANCH  19  20
ENDBRANCH  14  19
ENDBRANCH   8  11
BRANCH   1  28
ATOM     28  C   UNL     1      29.588   9.786  -4.796  1.00  0.00     0.040 A
ATOM     29  C   UNL     1      29.181   8.802  -5.675  1.00  0.00     0.119 A
ATOM     30  C   UNL     1      28.546  10.730  -4.834  1.00  0.00     0.145 A
ATOM     31  N   UNL     1      27.953   9.181  -6.164  1.00  0.00    -0.266 N
ATOM     32  N   UNL     1      27.572  10.387  -5.676  1.00  0.00    -0.180 NA
BRANCH  31  33
ATOM     33  C   UNL     1      27.158   8.564  -7.254  1.00  0.00     0.065 C
ATOM     34  C   UNL     1      28.131   7.663  -8.079  1.00  0.00     0.046 C
ATOM     35  C   UNL     1      26.553   9.666  -8.185  1.00  0.00     0.046 C
ATOM     36  C   UNL     1      28.628   8.361  -9.340  1.00  0.00     0.083 C
ATOM     37  C   UNL     1      26.316   9.146  -9.600  1.00  0.00     0.083 C
ATOM     38  N   UNL     1      27.525   8.651 -10.256  1.00  0.00    -0.317 NA
ATOM     39  H   UNL     1      27.846   9.328 -10.950  1.00  0.00     0.122 HD
BRANCH  33  40
ATOM     40  C   UNL     1      26.015   7.632  -6.724  1.00  0.00     0.031 C
BRANCH  40  41
ATOM     41  C   UNL     1      26.031   7.274  -5.229  1.00  0.00     0.005 C
ATOM     42  G   UNL     1      26.640   5.881  -5.018  1.00  0.00     0.000 C
ENDBRANCH  40  41
ENDBRANCH  33  40
ENDBRANCH  31  33
ENDBRANCH   1  28
TORSDOF 0
ENDMDL
MODEL 5
REMARK VINA RESULT:     -10.4      1.251      2.369
REMARK SMILES Fc1cc2cc(F)c1CN1CCO[C@H](CCCC3(CCNCC3)n3cc(cn3)-c3cnc4cccc-2c4n3)C1
REMARK SMILES IDX 29 1 30 2 31 3 32 4 33 5 34 6 35 7 36 8 37 9 38 10 4 11 2 12
REMARK SMILES IDX 3 13 8 14 6 15 5 16 1 17 7 18 9 19 10 20 11 21 39 22 12 23
REMARK SMILES IDX 14 24 13 25 15 26 26 28 25 29 27 30 24 31 28 32 18 33 19 34
REMARK SMILES IDX 23 35 20 36 22 37 21 38 17 40 16 41
REMARK H PARENT 21 39
REMARK Flexibility Score:   65.900
ROOT
ATOM      1  C   UNL     1      31.670   9.871  -3.610  1.00  0.00     0.092 A
ATOM      2  C   UNL     1      32.546   8.882  -3.196  1.00  0.00     0.140 A
ATOM      3  N   UNL     1      33.749   9.153  -2.640  1.00  0.00    -0.252 NA
ATOM      4  C   UNL     1      34.072  10.453  -2.519  1.00  0.00     0.089 A
ATOM      5  C   UNL     1      35.305  10.771  -1.968  1.00  0.00     0.030 A
ATOM      6  C   UNL     1      35.719  12.092  -1.825  1.00  0.00     0.003 A
ATOM      7  C   UNL     1      34.883  13.115  -2.246  1.00  0.00     0.011 A
ATOM      8  C   UNL     1      33.625  12.824  -2.806  1.00  0.00     0.010 A
ATOM      9  C   UNL     1      33.196  11.488  -2.941  1.00  0.00     0.097 A
ATOM     10  N   UNL     1      31.981  11.180  -3.473  1.00  0.00    -0.244 NA
ENDROOT
BRANCH   8  11
ATOM     11  C   UNL     1      32.780  13.937  -3.260  1.00  0.00    -0.010 A
ATOM     12  C   UNL     1      31.263  15.761  -2.782  1.00  0.00     0.131 A
ATOM     13  C   UNL     1      32.110  14.749  -2.337  1.00  0.00     0.048 A
ATOM     14  C   UNL     1      31.053  15.997  -4.143  1.00  0.00     0.038 A
ATOM     15  C   UNL     1      31.758  15.211  -5.053  1.00  0.00     0.131 A
ATOM     16  C   UNL     1      32.611  14.195  -4.628  1.00  0.00     0.048 A
ATOM     17  F   UNL     1      30.608  16.494  -1.869  1.00  0.00    -0.207 F
ATOM     18  F   UNL     1      31.608  15.413  -6.370  1.00  0.00    -0.207 F
BRANCH  14  19
ATOM     19  C   UNL     1      30.021  16.992  -4.604  1.00  0.00     0.126 C
BRANCH  19  20
ATOM     20  N   UNL     1      30.610  18.129  -5.335  1.00  0.00    -0.294 NA
ATOM     21  C   UNL     1      31.612  18.853  -4.529  1.00  0.00     0.113 C
ATOM     22  C   UNL     1      29.577  19.060  -5.840  1.00  0.00     0.117 C
ATOM     23  C   UNL     1      31.080  20.165  -3.929  1.00  0.00     0.176 C
ATOM     24  C   UNL     1      30.138  20.468  -6.125  1.00  0.00     0.132 C
ATOM     25  O   UNL     1      30.608  21.095  -4.913  1.00  0.00    -0.376 OA
BRANCH  24  26
ATOM     26  C   UNL     1      29.061  21.388  -6.719  1.00  0.00     0.033 C
ATOM     27  G   UNL     1      27.949  20.633  -7.462  1.00  0.00     0.000 C
ENDBRANCH  24  26
ENDBRANCH  19  20
ENDBRANCH  14  19
ENDBRANCH   8  11
BRANCH   1  28
ATOM     28  C   UNL     1      30.403   9.539  -4.226  1.00  0.00     0.040 A
ATOM     29  C   UNL     1      30.101   8.351  -4.864  1.00  0.00     0.119 A
ATOM     30  C   UNL     1      29.237  10.312  -4.374  1.00  0.00     0.145 A
ATOM     31  N   UNL     1      28.812   8.461  -5.329  1.00  0.00    -0.266 N
ATOM     32  N   UNL     1      28.286   9.681  -5.061  1.00  0.00    -0.180 NA
BRANCH  31  33
ATOM     33  C   UNL     1      28.064   7.537  -6.217  1.00  0.00     0.065 C
ATOM     34  C   UNL     1      28.467   6.083  -5.812  1.00  0.00     0.046 C
ATOM     35  C   UNL     1      28.446   7.784  -7.713  1.00  0.00     0.046 C
ATOM     36  C   UNL     1      29.539   5.508  -6.731  1.00  0.00     0.083 C
ATOM     37  C   UNL     1      28.261   6.530  -8.562  1.00  0.00     0.083 C
ATOM     38  N   UNL     1      29.050   5.387  -8.105  1.00  0.00    -0.317 NA
ATOM     39  H   UNL     1      29.849   5.246  -8.724  1.00  0.00     0.122 HD
BRANCH  33  40
ATOM     40  C   UNL     1      26.511   7.643  -6.042  1.00  0.00     0.031 C
BRANCH  40  41
ATOM     41  C   UNL     1      25.781   6.424  -5.456  1.00  0.00     0.005 C
ATOM     42  G   UNL     1      25.107   6.792  -4.126  1.00  0.00     0.000 C
ENDBRANCH  40  41
ENDBRANCH  33  40
ENDBRANCH  31  33
ENDBRANCH   1  28
TORSDOF 0
ENDMDL
MODEL 6
REMARK VINA RESULT:     -10.4      1.177      2.710
REMARK SMILES Fc1cc2cc(F)c1CN1CCO[C@H](CCCC3(CCNCC3)n3cc(cn3)-c3cnc4cccc-2c4n3)C1
REMARK SMILES IDX 29 1 30 2 31 3 32 4 33 5 34 6 35 7 36 8 37 9 38 10 4 11 2 12
REMARK SMILES IDX 3 13 8 14 6 15 5 16 1 17 7 18 9 19 10 20 11 21 39 22 12 23
REMARK SMILES IDX 14 24 13 25 15 26 26 28 25 29 27 30 24 31 28 32 18 33 19 34
REMARK SMILES IDX 23 35 20 36 22 37 21 38 17 40 16 41
REMARK H PARENT 21 39
REMARK Flexibility Score:   65.900
ROOT
ATOM      1  C   UNL     1      32.311   9.169  -3.360  1.00  0.00     0.092 A
ATOM      2  C   UNL     1      33.252   8.323  -2.798  1.00  0.00     0.140 A
ATOM      3  N   UNL     1      34.336   8.774  -2.127  1.00  0.00    -0.252 NA
ATOM      4  C   UNL     1      34.473  10.108  -2.040  1.00  0.00     0.089 A
ATOM      5  C   UNL     1      35.581  10.609  -1.372  1.00  0.00     0.030 A
ATOM      6  C   UNL     1      35.802  11.978  -1.254  1.00  0.00     0.003 A
ATOM      7  C   UNL     1      34.898  12.864  -1.820  1.00  0.00     0.011 A
ATOM      8  C   UNL     1      33.762  12.386  -2.501  1.00  0.00     0.010 A
ATOM      9  C   UNL     1      33.527  11.000  -2.612  1.00  0.00     0.097 A
ATOM     10  N   UNL     1      32.434  10.513  -3.260  1.00  0.00    -0.244 NA
ENDROOT
BRANCH   8  11
ATOM     11  C   UNL     1      32.842  13.358  -3.106  1.00  0.00    -0.010 A
ATOM     12  C   UNL     1      31.892  14.426  -5.059  1.00  0.00     0.131 A
ATOM     13  C   UNL     1      32.721  13.458  -4.497  1.00  0.00     0.048 A
ATOM     14  C   UNL     1      31.166  15.319  -4.268  1.00  0.00     0.038 A
ATOM     15  C   UNL     1      31.260  15.184  -2.883  1.00  0.00     0.131 A
ATOM     16  C   UNL     1      32.083  14.220  -2.302  1.00  0.00     0.048 A
ATOM     17  F   UNL     1      31.830  14.517  -6.396  1.00  0.00    -0.207 F
ATOM     18  F   UNL     1      30.566  16.002  -2.080  1.00  0.00    -0.207 F
BRANCH  14  19
ATOM     19  C   UNL     1      30.395  16.454  -4.891  1.00  0.00     0.126 C
BRANCH  19  20
ATOM     20  N   UNL     1      31.055  17.760  -4.713  1.00  0.00    -0.294 NA
ATOM     21  C   UNL     1      30.130  18.888  -4.933  1.00  0.00     0.113 C
ATOM     22  C   UNL     1      32.256  17.897  -5.565  1.00  0.00     0.117 C
ATOM     23  C   UNL     1      30.301  19.557  -6.307  1.00  0.00     0.176 C
ATOM     24  C   UNL     1      32.648  19.370  -5.803  1.00  0.00     0.132 C
ATOM     25  O   UNL     1      31.621  20.069  -6.536  1.00  0.00    -0.376 OA
BRANCH  24  26
ATOM     26  C   UNL     1      33.940  19.477  -6.626  1.00  0.00     0.033 C
ATOM     27  G   UNL     1      34.680  18.141  -6.787  1.00  0.00     0.000 C
ENDBRANCH  24  26
ENDBRANCH  19  20
ENDBRANCH  14  19
ENDBRANCH   8  11
BRANCH   1  28
ATOM     28  C   UNL     1      31.179   8.647  -4.096  1.00  0.00     0.040 A
ATOM     29  C   UNL     1      30.236   9.400  -4.769  1.00  0.00     0.119 A
ATOM     30  C   UNL     1      30.739   7.321  -4.262  1.00  0.00     0.145 A
ATOM     31  N   UNL     1      29.324   8.519  -5.301  1.00  0.00    -0.266 N
ATOM     32  N   UNL     1      29.609   7.238  -4.961  1.00  0.00    -0.180 NA
BRANCH  31  33
ATOM     33  C   UNL     1      28.035   8.813  -5.973  1.00  0.00     0.065 C
ATOM     34  C   UNL     1      27.973   7.927  -7.258  1.00  0.00     0.046 C
ATOM     35  C   UNL     1      27.957  10.322  -6.378  1.00  0.00     0.046 C
ATOM     36  C   UNL     1      28.377   8.701  -8.507  1.00  0.00     0.083 C
ATOM     37  C   UNL     1      27.043  10.542  -7.579  1.00  0.00     0.083 C
ATOM     38  N   UNL     1      27.450   9.802  -8.773  1.00  0.00    -0.317 NA
ATOM     39  H   UNL     1      27.881  10.437  -9.446  1.00  0.00     0.122 HD
BRANCH  33  40
ATOM     40  C   UNL     1      26.790   8.434  -5.100  1.00  0.00     0.031 C
BRANCH  40  41
ATOM     41  C   UNL     1      25.838   7.362  -5.654  1.00  0.00     0.005 C
ATOM     42  G   UNL     1      25.843   6.122  -4.748  1.00  0.00     0.000 C
ENDBRANCH  40  41
ENDBRANCH  33  40
ENDBRANCH  31  33
ENDBRANCH   1  28
TORSDOF 0
ENDMDL
MODEL 7
REMARK VINA RESULT:     -10.3      1.968      3.532
REMARK SMILES Fc1cc2cc(F)c1CN1CCO[C@H](CCCC3(CCNCC3)n3cc(cn3)-c3cnc4cccc-2c4n3)C1
REMARK SMILES IDX 29 1 30 2 31 3 32 4 33 5 34 6 35 7 36 8 37 9 38 10 4 11 2 12
REMARK SMILES IDX 3 13 8 14 6 15 5 16 1 17 7 18 9 19 10 20 11 21 39 22 12 23
REMARK SMILES IDX 14 24 13 25 15 26 26 28 25 29 27 30 24 31 28 32 18 33 19 34
REMARK SMILES IDX 23 35 20 36 22 37 21 38 17 40 16 41
REMARK H PARENT 21 39
REMARK Flexibility Score:   65.900
ROOT
ATOM      1  C   UNL     1      31.434   9.934  -3.657  1.00  0.00     0.092 A
ATOM      2  C   UNL     1      32.204   8.860  -3.241  1.00  0.00     0.140 A
ATOM      3  N   UNL     1      33.417   9.009  -2.663  1.00  0.00    -0.252 NA
ATOM      4  C   UNL     1      33.862  10.269  -2.520  1.00  0.00     0.089 A
ATOM      5  C   UNL     1      35.110  10.461  -1.945  1.00  0.00     0.030 A
ATOM      6  C   UNL     1      35.646  11.734  -1.778  1.00  0.00     0.003 A
ATOM      7  C   UNL     1      34.920  12.838  -2.200  1.00  0.00     0.011 A
ATOM      8  C   UNL     1      33.650  12.676  -2.783  1.00  0.00     0.010 A
ATOM      9  C   UNL     1      33.097  11.389  -2.943  1.00  0.00     0.097 A
ATOM     10  N   UNL     1      31.868  11.205  -3.499  1.00  0.00    -0.244 NA
ENDROOT
BRANCH   8  11
ATOM     11  C   UNL     1      32.925  13.870  -3.237  1.00  0.00    -0.010 A
ATOM     12  C   UNL     1      31.426  15.719  -2.796  1.00  0.00     0.131 A
ATOM     13  C   UNL     1      32.159  14.626  -2.341  1.00  0.00     0.048 A
ATOM     14  C   UNL     1      31.425  16.093  -4.142  1.00  0.00     0.038 A
ATOM     15  C   UNL     1      32.223  15.359  -5.019  1.00  0.00     0.131 A
ATOM     16  C   UNL     1      32.966  14.263  -4.582  1.00  0.00     0.048 A
ATOM     17  F   UNL     1      30.676  16.397  -1.915  1.00  0.00    -0.207 F
ATOM     18  F   UNL     1      32.274  15.692  -6.317  1.00  0.00    -0.207 F
BRANCH  14  19
ATOM     19  C   UNL     1      30.511  17.181  -4.641  1.00  0.00     0.126 C
BRANCH  19  20
ATOM     20  N   UNL     1      29.500  16.686  -5.594  1.00  0.00    -0.294 NA
ATOM     21  C   UNL     1      28.863  17.781  -6.351  1.00  0.00     0.113 C
ATOM     22  C   UNL     1      28.478  15.846  -4.933  1.00  0.00     0.117 C
ATOM     23  C   UNL     1      27.462  18.146  -5.832  1.00  0.00     0.176 C
ATOM     24  C   UNL     1      27.170  15.757  -5.745  1.00  0.00     0.132 C
ATOM     25  O   UNL     1      26.538  17.049  -5.856  1.00  0.00    -0.376 OA
BRANCH  24  26
ATOM     26  C   UNL     1      26.158  14.818  -5.072  1.00  0.00     0.033 C
ATOM     27  G   UNL     1      26.264  13.360  -5.545  1.00  0.00     0.000 C
ENDBRANCH  24  26
ENDBRANCH  19  20
ENDBRANCH  14  19
ENDBRANCH   8  11
BRANCH   1  28
ATOM     28  C   UNL     1      30.152   9.732  -4.298  1.00  0.00     0.040 A
ATOM     29  C   UNL     1      29.797   8.644  -5.071  1.00  0.00     0.119 A
ATOM     30  C   UNL     1      29.020  10.566  -4.343  1.00  0.00     0.145 A
ATOM     31  N   UNL     1      28.512   8.863  -5.508  1.00  0.00    -0.266 N
ATOM     32  N   UNL     1      28.041  10.064  -5.092  1.00  0.00    -0.180 NA
BRANCH  31  33
ATOM     33  C   UNL     1      27.723   8.085  -6.495  1.00  0.00     0.065 C
ATOM     34  C   UNL     1      28.742   7.305  -7.386  1.00  0.00     0.046 C
ATOM     35  C   UNL     1      26.870   9.039  -7.393  1.00  0.00     0.046 C
ATOM     36  C   UNL     1      29.004   8.014  -8.710  1.00  0.00     0.083 C
ATOM     37  C   UNL     1      26.584   8.428  -8.761  1.00  0.00     0.083 C
ATOM     38  N   UNL     1      27.788   8.092  -9.520  1.00  0.00    -0.317 NA
ATOM     39  H   UNL     1      27.933   8.778 -10.262  1.00  0.00     0.122 HD
BRANCH  33  40
ATOM     40  C   UNL     1      26.794   7.015  -5.826  1.00  0.00     0.031 C
BRANCH  40  41
ATOM     41  C   UNL     1      27.452   5.716  -5.334  1.00  0.00     0.005 C
ATOM     42  G   UNL     1      26.485   4.933  -4.434  1.00  0.00     0.000 C
ENDBRANCH  40  41
ENDBRANCH  33  40
ENDBRANCH  31  33
ENDBRANCH   1  28
TORSDOF 0
ENDMDL
MODEL 8
REMARK VINA RESULT:     -10.3      1.623      3.040
REMARK SMILES Fc1cc2cc(F)c1CN1CCO[C@H](CCCC3(CCNCC3)n3cc(cn3)-c3cnc4cccc-2c4n3)C1
REMARK SMILES IDX 29 1 30 2 31 3 32 4 33 5 34 6 35 7 36 8 37 9 38 10 4 11 2 12
REMARK SMILES IDX 3 13 8 14 6 15 5 16 1 17 7 18 9 19 10 20 11 21 39 22 12 23
REMARK SMILES IDX 14 24 13 25 15 26 26 28 25 29 27 30 24 31 28 32 18 33 19 34
REMARK SMILES IDX 23 35 20 36 22 37 21 38 17 40 16 41
REMARK H PARENT 21 39
REMARK Flexibility Score:   65.900
ROOT
ATOM      1  C   UNL     1      31.985   9.394  -3.409  1.00  0.00     0.092 A
ATOM      2  C   UNL     1      32.832   8.435  -2.879  1.00  0.00     0.140 A
ATOM      3  N   UNL     1      33.978   8.746  -2.233  1.00  0.00    -0.252 NA
ATOM      4  C   UNL     1      34.275  10.053  -2.137  1.00  0.00     0.089 A
ATOM      5  C   UNL     1      35.452  10.411  -1.494  1.00  0.00     0.030 A
ATOM      6  C   UNL     1      35.837  11.742  -1.369  1.00  0.00     0.003 A
ATOM      7  C   UNL     1      35.030  12.736  -1.904  1.00  0.00     0.011 A
ATOM      8  C   UNL     1      33.829  12.405  -2.558  1.00  0.00     0.010 A
ATOM      9  C   UNL     1      33.428  11.058  -2.676  1.00  0.00     0.097 A
ATOM     10  N   UNL     1      32.269  10.712  -3.299  1.00  0.00    -0.244 NA
ENDROOT
BRANCH   8  11
ATOM     11  C   UNL     1      33.016  13.486  -3.130  1.00  0.00    -0.010 A
ATOM     12  C   UNL     1      32.248  14.761  -5.039  1.00  0.00     0.131 A
ATOM     13  C   UNL     1      32.973  13.694  -4.514  1.00  0.00     0.048 A
ATOM     14  C   UNL     1      31.553  15.651  -4.216  1.00  0.00     0.038 A
ATOM     15  C   UNL     1      31.568  15.411  -2.843  1.00  0.00     0.131 A
ATOM     16  C   UNL     1      32.285  14.347  -2.299  1.00  0.00     0.048 A
ATOM     17  F   UNL     1      32.260  14.950  -6.366  1.00  0.00    -0.207 F
ATOM     18  F   UNL     1      30.898  16.223  -2.013  1.00  0.00    -0.207 F
BRANCH  14  19
ATOM     19  C   UNL     1      30.902  16.884  -4.787  1.00  0.00     0.126 C
BRANCH  19  20
ATOM     20  N   UNL     1      29.744  16.574  -5.645  1.00  0.00    -0.294 NA
ATOM     21  C   UNL     1      29.172  17.782  -6.270  1.00  0.00     0.113 C
ATOM     22  C   UNL     1      28.700  15.820  -4.918  1.00  0.00     0.117 C
ATOM     23  C   UNL     1      27.889  18.276  -5.581  1.00  0.00     0.176 C
ATOM     24  C   UNL     1      27.313  15.939  -5.583  1.00  0.00     0.132 C
ATOM     25  O   UNL     1      26.839  17.301  -5.557  1.00  0.00    -0.376 OA
BRANCH  24  26
ATOM     26  C   UNL     1      26.268  15.084  -4.850  1.00  0.00     0.033 C
ATOM     27  G   UNL     1      25.611  14.018  -5.739  1.00  0.00     0.000 C
ENDBRANCH  24  26
ENDBRANCH  19  20
ENDBRANCH  14  19
ENDBRANCH   8  11
BRANCH   1  28
ATOM     28  C   UNL     1      30.781   9.019  -4.119  1.00  0.00     0.040 A
ATOM     29  C   UNL     1      30.463   7.748  -4.557  1.00  0.00     0.119 A
ATOM     30  C   UNL     1      29.709   9.813  -4.569  1.00  0.00     0.145 A
ATOM     31  N   UNL     1      29.254   7.837  -5.207  1.00  0.00    -0.266 N
ATOM     32  N   UNL     1      28.802   9.114  -5.248  1.00  0.00    -0.180 NA
BRANCH  31  33
ATOM     33  C   UNL     1      28.549   6.800  -5.999  1.00  0.00     0.065 C
ATOM     34  C   UNL     1      27.037   7.191  -6.027  1.00  0.00     0.046 C
ATOM     35  C   UNL     1      28.710   5.394  -5.332  1.00  0.00     0.046 C
ATOM     36  C   UNL     1      26.227   6.422  -4.990  1.00  0.00     0.083 C
ATOM     37  C   UNL     1      27.547   4.467  -5.672  1.00  0.00     0.083 C
ATOM     38  N   UNL     1      26.242   4.985  -5.263  1.00  0.00    -0.317 NA
ATOM     39  H   UNL     1      25.917   4.490  -4.432  1.00  0.00     0.122 HD
BRANCH  33  40
ATOM     40  C   UNL     1      29.029   6.738  -7.489  1.00  0.00     0.031 C
BRANCH  40  41
ATOM     41  C   UNL     1      29.186   8.071  -8.238  1.00  0.00     0.005 C
ATOM     42  G   UNL     1      28.195   8.148  -9.408  1.00  0.00     0.000 C
ENDBRANCH  40  41
ENDBRANCH  33  40
ENDBRANCH  31  33
ENDBRANCH   1  28
TORSDOF 0
ENDMDL
MODEL 9
REMARK VINA RESULT:     -10.3      1.143      1.939
REMARK SMILES Fc1cc2cc(F)c1CN1CCO[C@H](CCCC3(CCNCC3)n3cc(cn3)-c3cnc4cccc-2c4n3)C1
REMARK SMILES IDX 29 1 30 2 31 3 32 4 33 5 34 6 35 7 36 8 37 9 38 10 4 11 2 12
REMARK SMILES IDX 3 13 8 14 6 15 5 16 1 17 7 18 9 19 10 20 11 21 39 22 12 23
REMARK SMILES IDX 14 24 13 25 15 26 26 28 25 29 27 30 24 31 28 32 18 33 19 34
REMARK SMILES IDX 23 35 20 36 22 37 21 38 17 40 16 41
REMARK H PARENT 21 39
REMARK Flexibility Score:   65.900
ROOT
ATOM      1  C   UNL     1      31.588   9.622  -3.706  1.00  0.00     0.092 A
ATOM      2  C   UNL     1      32.357   8.565  -3.248  1.00  0.00     0.140 A
ATOM      3  N   UNL     1      33.523   8.741  -2.585  1.00  0.00    -0.252 NA
ATOM      4  C   UNL     1      33.920  10.012  -2.401  1.00  0.00     0.089 A
ATOM      5  C   UNL     1      35.120  10.232  -1.739  1.00  0.00     0.030 A
ATOM      6  C   UNL     1      35.607  11.517  -1.523  1.00  0.00     0.003 A
ATOM      7  C   UNL     1      34.881  12.605  -1.985  1.00  0.00     0.011 A
ATOM      8  C   UNL     1      33.659  12.414  -2.656  1.00  0.00     0.010 A
ATOM      9  C   UNL     1      33.155  11.114  -2.866  1.00  0.00     0.097 A
ATOM     10  N   UNL     1      31.973  10.903  -3.507  1.00  0.00    -0.244 NA
ENDROOT
BRANCH   8  11
ATOM     11  C   UNL     1      32.933  13.593  -3.148  1.00  0.00    -0.010 A
ATOM     12  C   UNL     1      31.530  15.523  -2.744  1.00  0.00     0.131 A
ATOM     13  C   UNL     1      32.267  14.445  -2.259  1.00  0.00     0.048 A
ATOM     14  C   UNL     1      31.429  15.787  -4.112  1.00  0.00     0.038 A
ATOM     15  C   UNL     1      32.130  14.958  -4.986  1.00  0.00     0.131 A
ATOM     16  C   UNL     1      32.875  13.875  -4.520  1.00  0.00     0.048 A
ATOM     17  F   UNL     1      30.875  16.296  -1.865  1.00  0.00    -0.207 F
ATOM     18  F   UNL     1      32.084  15.183  -6.307  1.00  0.00    -0.207 F
BRANCH  14  19
ATOM     19  C   UNL     1      30.508  16.863  -4.625  1.00  0.00     0.126 C
BRANCH  19  20
ATOM     20  N   UNL     1      31.055  18.220  -4.442  1.00  0.00    -0.294 NA
ATOM     21  C   UNL     1      30.070  19.269  -4.771  1.00  0.00     0.113 C
ATOM     22  C   UNL     1      32.306  18.422  -5.205  1.00  0.00     0.117 C
ATOM     23  C   UNL     1      30.299  19.909  -6.150  1.00  0.00     0.176 C
ATOM     24  C   UNL     1      32.607  19.913  -5.463  1.00  0.00     0.132 C
ATOM     25  O   UNL     1      31.593  20.511  -6.295  1.00  0.00    -0.376 OA
BRANCH  24  26
ATOM     26  C   UNL     1      33.949  20.093  -6.188  1.00  0.00     0.033 C
ATOM     27  G   UNL     1      34.467  18.809  -6.852  1.00  0.00     0.000 C
ENDBRANCH  24  26
ENDBRANCH  19  20
ENDBRANCH  14  19
ENDBRANCH   8  11
BRANCH   1  28
ATOM     28  C   UNL     1      30.359   9.392  -4.436  1.00  0.00     0.040 A
ATOM     29  C   UNL     1      30.029   8.238  -5.120  1.00  0.00     0.119 A
ATOM     30  C   UNL     1      29.270  10.251  -4.672  1.00  0.00     0.145 A
ATOM     31  N   UNL     1      28.797   8.449  -5.693  1.00  0.00    -0.266 N
ATOM     32  N   UNL     1      28.340   9.701  -5.450  1.00  0.00    -0.180 NA
BRANCH  31  33
ATOM     33  C   UNL     1      28.066   7.593  -6.660  1.00  0.00     0.065 C
ATOM     34  C   UNL     1      28.894   7.585  -7.985  1.00  0.00     0.046 C
ATOM     35  C   UNL     1      26.641   8.174  -6.940  1.00  0.00     0.046 C
ATOM     36  C   UNL     1      28.345   8.572  -9.009  1.00  0.00     0.083 C
ATOM     37  C   UNL     1      26.126   7.775  -8.320  1.00  0.00     0.083 C
ATOM     38  N   UNL     1      26.987   8.211  -9.419  1.00  0.00    -0.317 NA
ATOM     39  H   UNL     1      26.566   9.010  -9.894  1.00  0.00     0.122 HD
BRANCH  33  40
ATOM     40  C   UNL     1      27.948   6.103  -6.190  1.00  0.00     0.031 C
BRANCH  40  41
ATOM     41  C   UNL     1      28.242   5.009  -7.228  1.00  0.00     0.005 C
ATOM     42  G   UNL     1      29.656   4.445  -7.026  1.00  0.00     0.000 C
ENDBRANCH  40  41
ENDBRANCH  33  40
ENDBRANCH  31  33
ENDBRANCH   1  28
TORSDOF 0
ENDMDL
