MODEL 1
REMARK VINA RESULT:      -9.9      0.000      0.000
REMARK SMILES NC(=O)c1cnc2c3c1[nH]c1cc(ccc13)-c1ccc(nn1)N1CCS(=O)(=O)C[C@H]1CCC[C@H]1C[C@H]1[C@H](C(F)(F)F)N2
REMARK SMILES IDX 4 1 5 2 6 3 7 4 8 5 9 6 10 7 11 8 12 9 13 10 14 11 15 12
REMARK SMILES IDX 16 13 2 15 1 16 3 17 42 20 37 22 36 23 35 24 34 25 33 26
REMARK SMILES IDX 38 28 39 29 40 30 41 31 17 32 18 33 22 34 19 35 21 36 20 37
REMARK SMILES IDX 23 38 24 39 30 40 25 41 29 42 26 43 27 44 28 45 31 46 32 47
REMARK H PARENT 10 14 1 18 1 19 42 21
REMARK Flexibility Score:   48.900
ROOT
ATOM      1  C   UNL     1      28.022   8.475  -5.524  1.00  0.00     0.082 A
ATOM      2  C   UNL     1      29.250   7.851  -5.337  1.00  0.00     0.129 A
ATOM      3  N   UNL     1      30.422   8.474  -5.033  1.00  0.00    -0.238 NA
ATOM      4  C   UNL     1      30.430   9.816  -4.875  1.00  0.00     0.136 A
ATOM      5  C   UNL     1      29.209  10.520  -4.916  1.00  0.00     0.051 A
ATOM      6  C   UNL     1      28.049   9.858  -5.311  1.00  0.00     0.065 A
ATOM      7  N   UNL     1      27.073  10.822  -5.471  1.00  0.00    -0.354 N
ATOM      8  C   UNL     1      27.574  12.074  -5.200  1.00  0.00     0.047 A
ATOM      9  C   UNL     1      27.043  13.355  -5.421  1.00  0.00     0.037 A
ATOM     10  C   UNL     1      27.850  14.462  -5.091  1.00  0.00     0.004 A
ATOM     11  C   UNL     1      29.047  14.255  -4.379  1.00  0.00     0.011 A
ATOM     12  C   UNL     1      29.566  12.979  -4.187  1.00  0.00     0.012 A
ATOM     13  C   UNL     1      28.856  11.881  -4.692  1.00  0.00     0.011 A
ATOM     14  H   UNL     1      26.145  10.619  -5.827  1.00  0.00     0.167 HD
ENDROOT
BRANCH   1  15
ATOM     15  C   UNL     1      26.771   7.801  -5.929  1.00  0.00     0.252 C
ATOM     16  N   UNL     1      25.701   7.824  -5.080  1.00  0.00    -0.365 N
ATOM     17  O   UNL     1      26.688   7.232  -7.013  1.00  0.00    -0.269 OA
ATOM     18  H   UNL     1      24.862   7.350  -5.394  1.00  0.00     0.159 HD
ATOM     19  H   UNL     1      25.667   8.279  -4.182  1.00  0.00     0.159 HD
ENDBRANCH   1  15
BRANCH   4  20
ATOM     20  N   UNL     1      31.658  10.460  -4.782  1.00  0.00    -0.358 N
ATOM     21  H   UNL     1      31.567  11.378  -5.219  1.00  0.00     0.162 HD
BRANCH  20  22
ATOM     22  C   UNL     1      32.275  10.595  -3.418  1.00  0.00     0.189 C
BRANCH  22  23
ATOM     23  C   UNL     1      33.672  11.196  -3.424  1.00  0.00     0.024 C
ATOM     24  C   UNL     1      34.432  11.448  -2.139  1.00  0.00     0.010 C
ATOM     25  C   UNL     1      34.051  12.616  -3.008  1.00  0.00    -0.005 C
BRANCH  25  26
ATOM     26  C   UNL     1      33.164  13.671  -2.401  1.00  0.00     0.004 C
ATOM     27  G   UNL     1      33.755  15.070  -2.677  1.00  0.00     0.000 C
ENDBRANCH  25  26
ENDBRANCH  22  23
BRANCH  22  28
ATOM     28  C   UNL     1      32.264   9.236  -2.651  1.00  0.00     0.408 C
ATOM     29  F   UNL     1      33.114   9.261  -1.595  1.00  0.00    -0.169 F
ATOM     30  F   UNL     1      31.027   8.986  -2.148  1.00  0.00    -0.169 F
ATOM     31  F   UNL     1      32.609   8.185  -3.425  1.00  0.00    -0.169 F
ENDBRANCH  22  28
ENDBRANCH  20  22
ENDBRANCH   4  20
BRANCH  10  32
ATOM     32  C   UNL     1      27.668  15.774  -5.739  1.00  0.00     0.093 A
ATOM     33  C   UNL     1      27.342  16.915  -5.022  1.00  0.00     0.035 A
ATOM     34  N   UNL     1      28.335  15.876  -6.907  1.00  0.00    -0.148 NA
ATOM     35  C   UNL     1      27.988  18.104  -5.356  1.00  0.00     0.051 A
ATOM     36  N   UNL     1      28.967  17.043  -7.218  1.00  0.00    -0.132 NA
ATOM     37  C   UNL     1      28.922  18.101  -6.386  1.00  0.00     0.151 A
BRANCH  37  38
ATOM     38  N   UNL     1      29.965  19.019  -6.422  1.00  0.00    -0.350 N
ATOM     39  C   UNL     1      29.735  20.454  -6.520  1.00  0.00     0.134 C
ATOM     40  C   UNL     1      31.331  18.462  -6.230  1.00  0.00     0.098 C
ATOM     41  C   UNL     1      30.402  21.150  -5.361  1.00  0.00     0.158 C
ATOM     42  C   UNL     1      32.404  19.513  -6.483  1.00  0.00     0.162 C
ATOM     43  S   UNL     1      32.162  20.991  -5.526  1.00  0.00     0.154 S
ATOM     44  O   UNL     1      32.619  22.107  -6.336  1.00  0.00    -0.229 OA
ATOM     45  O   UNL     1      32.715  20.782  -4.201  1.00  0.00    -0.229 OA
BRANCH  40  46
ATOM     46  C   UNL     1      31.486  17.786  -4.826  1.00  0.00     0.026 C
BRANCH  46  47
ATOM     47  C   UNL     1      32.404  16.551  -4.878  1.00  0.00     0.002 C
ATOM     48  G   UNL     1      32.030  15.532  -5.976  1.00  0.00     0.000 C
ENDBRANCH  46  47
ENDBRANCH  40  46
ENDBRANCH  37  38
ENDBRANCH  10  32
TORSDOF 2
ENDMDL
MODEL 2
REMARK VINA RESULT:      -9.9      3.532      6.073
REMARK SMILES NC(=O)c1cnc2c3c1[nH]c1cc(ccc13)-c1ccc(nn1)N1CCS(=O)(=O)C[C@H]1CCC[C@H]1C[C@H]1[C@H](C(F)(F)F)N2
REMARK SMILES IDX 4 1 5 2 6 3 7 4 8 5 9 6 10 7 11 8 12 9 13 10 14 11 15 12
REMARK SMILES IDX 16 13 2 15 1 16 3 17 42 20 37 22 36 23 35 24 34 25 33 26
REMARK SMILES IDX 38 28 39 29 40 30 41 31 17 32 18 33 22 34 19 35 21 36 20 37
REMARK SMILES IDX 23 38 24 39 30 40 25 41 29 42 26 43 27 44 28 45 31 46 32 47
REMARK H PARENT 10 14 1 18 1 19 42 21
REMARK Flexibility Score:   48.900
ROOT
ATOM      1  C   UNL     1      34.803  11.478  -2.006  1.00  0.00     0.082 A
ATOM      2  C   UNL     1      34.410  10.198  -2.383  1.00  0.00     0.129 A
ATOM      3  N   UNL     1      33.440   9.899  -3.291  1.00  0.00    -0.238 NA
ATOM      4  C   UNL     1      32.790  10.907  -3.914  1.00  0.00     0.136 A
ATOM      5  C   UNL     1      33.210  12.234  -3.694  1.00  0.00     0.051 A
ATOM      6  C   UNL     1      34.146  12.501  -2.698  1.00  0.00     0.065 A
ATOM      7  N   UNL     1      34.201  13.875  -2.557  1.00  0.00    -0.354 N
ATOM      8  C   UNL     1      33.325  14.489  -3.422  1.00  0.00     0.047 A
ATOM      9  C   UNL     1      32.878  15.818  -3.503  1.00  0.00     0.037 A
ATOM     10  C   UNL     1      31.905  16.121  -4.476  1.00  0.00     0.004 A
ATOM     11  C   UNL     1      31.572  15.154  -5.445  1.00  0.00     0.011 A
ATOM     12  C   UNL     1      32.011  13.838  -5.336  1.00  0.00     0.012 A
ATOM     13  C   UNL     1      32.825  13.487  -4.251  1.00  0.00     0.011 A
ATOM     14  H   UNL     1      34.753  14.338  -1.844  1.00  0.00     0.167 HD
ENDROOT
BRANCH   1  15
ATOM     15  C   UNL     1      35.803  11.795  -0.965  1.00  0.00     0.252 C
ATOM     16  N   UNL     1      36.672  10.821  -0.564  1.00  0.00    -0.365 N
ATOM     17  O   UNL     1      35.859  12.916  -0.471  1.00  0.00    -0.269 OA
ATOM     18  H   UNL     1      37.342  11.077   0.152  1.00  0.00     0.159 HD
ATOM     19  H   UNL     1      36.716   9.880  -0.923  1.00  0.00     0.159 HD
ENDBRANCH   1  15
BRANCH   4  20
ATOM     20  N   UNL     1      31.664  10.596  -4.668  1.00  0.00    -0.358 N
ATOM     21  H   UNL     1      31.883   9.779  -5.240  1.00  0.00     0.162 HD
BRANCH  20  22
ATOM     22  C   UNL     1      30.370  10.383  -3.935  1.00  0.00     0.189 C
BRANCH  22  23
ATOM     23  C   UNL     1      29.829   8.964  -4.027  1.00  0.00     0.024 C
ATOM     24  C   UNL     1      30.645   7.844  -4.636  1.00  0.00     0.010 C
ATOM     25  C   UNL     1      29.355   8.254  -5.294  1.00  0.00    -0.005 C
BRANCH  25  26
ATOM     26  C   UNL     1      29.429   8.747  -6.715  1.00  0.00     0.004 C
ATOM     27  G   UNL     1      28.076   8.510  -7.419  1.00  0.00     0.000 C
ENDBRANCH  25  26
ENDBRANCH  22  23
BRANCH  22  28
ATOM     28  C   UNL     1      29.286  11.413  -4.382  1.00  0.00     0.408 C
ATOM     29  F   UNL     1      29.508  11.843  -5.648  1.00  0.00    -0.169 F
ATOM     30  F   UNL     1      28.055  10.839  -4.376  1.00  0.00    -0.169 F
ATOM     31  F   UNL     1      29.230  12.504  -3.587  1.00  0.00    -0.169 F
ENDBRANCH  22  28
ENDBRANCH  20  22
ENDBRANCH   4  20
BRANCH  10  32
ATOM     32  C   UNL     1      30.991  17.267  -4.327  1.00  0.00     0.093 A
ATOM     33  C   UNL     1      31.153  18.443  -5.042  1.00  0.00     0.035 A
ATOM     34  N   UNL     1      29.767  16.905  -3.891  1.00  0.00    -0.148 NA
ATOM     35  C   UNL     1      30.016  19.052  -5.570  1.00  0.00     0.051 A
ATOM     36  N   UNL     1      28.661  17.504  -4.420  1.00  0.00    -0.132 NA
ATOM     37  C   UNL     1      28.774  18.464  -5.359  1.00  0.00     0.151 A
BRANCH  37  38
ATOM     38  N   UNL     1      27.723  18.647  -6.249  1.00  0.00    -0.350 N
ATOM     39  C   UNL     1      27.292  19.969  -6.682  1.00  0.00     0.134 C
ATOM     40  C   UNL     1      27.141  17.409  -6.834  1.00  0.00     0.098 C
ATOM     41  C   UNL     1      27.352  20.050  -8.186  1.00  0.00     0.158 C
ATOM     42  C   UNL     1      25.880  17.709  -7.635  1.00  0.00     0.162 C
ATOM     43  S   UNL     1      26.129  18.961  -8.872  1.00  0.00     0.154 S
ATOM     44  O   UNL     1      24.892  19.715  -8.976  1.00  0.00    -0.229 OA
ATOM     45  O   UNL     1      26.701  18.339 -10.052  1.00  0.00    -0.229 OA
BRANCH  40  46
ATOM     46  C   UNL     1      28.198  16.615  -7.673  1.00  0.00     0.026 C
BRANCH  46  47
ATOM     47  C   UNL     1      28.029  15.092  -7.522  1.00  0.00     0.002 C
ATOM     48  G   UNL     1      27.789  14.625  -6.070  1.00  0.00     0.000 C
ENDBRANCH  46  47
ENDBRANCH  40  46
ENDBRANCH  37  38
ENDBRANCH  10  32
TORSDOF 2
ENDMDL
MODEL 3
REMARK VINA RESULT:      -9.8      1.126      2.136
REMARK SMILES NC(=O)c1cnc2c3c1[nH]c1cc(ccc13)-c1ccc(nn1)N1CCS(=O)(=O)C[C@H]1CCC[C@H]1C[C@H]1[C@H](C(F)(F)F)N2
REMARK SMILES IDX 4 1 5 2 6 3 7 4 8 5 9 6 10 7 11 8 12 9 13 10 14 11 15 12
REMARK SMILES IDX 16 13 2 15 1 16 3 17 42 20 37 22 36 23 35 24 34 25 33 26
REMARK SMILES IDX 38 28 39 29 40 30 41 31 17 32 18 33 22 34 19 35 21 36 20 37
REMARK SMILES IDX 23 38 24 39 30 40 25 41 29 42 26 43 27 44 28 45 31 46 32 47
REMARK H PARENT 10 14 1 18 1 19 42 21
REMARK Flexibility Score:   48.900
ROOT
ATOM      1  C   UNL     1      28.596   8.506  -5.406  1.00  0.00     0.082 A
ATOM      2  C   UNL     1      29.756   7.785  -5.140  1.00  0.00     0.129 A
ATOM      3  N   UNL     1      30.942   8.310  -4.726  1.00  0.00    -0.238 NA
ATOM      4  C   UNL     1      31.037   9.644  -4.530  1.00  0.00     0.136 A
ATOM      5  C   UNL     1      29.879  10.439  -4.647  1.00  0.00     0.051 A
ATOM      6  C   UNL     1      28.709   9.877  -5.152  1.00  0.00     0.065 A
ATOM      7  N   UNL     1      27.823  10.916  -5.362  1.00  0.00    -0.354 N
ATOM      8  C   UNL     1      28.393  12.120  -5.017  1.00  0.00     0.047 A
ATOM      9  C   UNL     1      27.978  13.443  -5.242  1.00  0.00     0.037 A
ATOM     10  C   UNL     1      28.836  14.477  -4.819  1.00  0.00     0.004 A
ATOM     11  C   UNL     1      29.953  14.164  -4.020  1.00  0.00     0.011 A
ATOM     12  C   UNL     1      30.358  12.848  -3.823  1.00  0.00     0.012 A
ATOM     13  C   UNL     1      29.612  11.819  -4.414  1.00  0.00     0.011 A
ATOM     14  H   UNL     1      26.915  10.793  -5.796  1.00  0.00     0.167 HD
ENDROOT
BRANCH   1  15
ATOM     15  C   UNL     1      27.336   7.938  -5.927  1.00  0.00     0.252 C
ATOM     16  N   UNL     1      26.667   7.012  -5.179  1.00  0.00    -0.365 N
ATOM     17  O   UNL     1      26.890   8.295  -7.013  1.00  0.00    -0.269 OA
ATOM     18  H   UNL     1      25.807   6.646  -5.571  1.00  0.00     0.159 HD
ATOM     19  H   UNL     1      26.943   6.672  -4.271  1.00  0.00     0.159 HD
ENDBRANCH   1  15
BRANCH   4  20
ATOM     20  N   UNL     1      32.298  10.189  -4.321  1.00  0.00    -0.358 N
ATOM     21  H   UNL     1      32.340  11.084  -4.812  1.00  0.00     0.162 HD
BRANCH  20  22
ATOM     22  C   UNL     1      32.762  10.357  -2.902  1.00  0.00     0.189 C
BRANCH  22  23
ATOM     23  C   UNL     1      34.194  10.851  -2.769  1.00  0.00     0.024 C
ATOM     24  C   UNL     1      34.770  11.261  -1.431  1.00  0.00     0.010 C
ATOM     25  C   UNL     1      34.637  12.292  -2.519  1.00  0.00    -0.005 C
BRANCH  25  26
ATOM     26  C   UNL     1      33.771  13.491  -2.235  1.00  0.00     0.004 C
ATOM     27  G   UNL     1      33.705  14.393  -3.486  1.00  0.00     0.000 C
ENDBRANCH  25  26
ENDBRANCH  22  23
BRANCH  22  28
ATOM     28  C   UNL     1      32.553   9.049  -2.076  1.00  0.00     0.408 C
ATOM     29  F   UNL     1      32.883   7.952  -2.801  1.00  0.00    -0.169 F
ATOM     30  F   UNL     1      33.356   9.048  -0.981  1.00  0.00    -0.169 F
ATOM     31  F   UNL     1      31.282   8.886  -1.650  1.00  0.00    -0.169 F
ENDBRANCH  22  28
ENDBRANCH  20  22
ENDBRANCH   4  20
BRANCH  10  32
ATOM     32  C   UNL     1      28.806  15.813  -5.441  1.00  0.00     0.093 A
ATOM     33  C   UNL     1      28.194  16.899  -4.835  1.00  0.00     0.035 A
ATOM     34  N   UNL     1      29.817  16.005  -6.312  1.00  0.00    -0.148 NA
ATOM     35  C   UNL     1      28.844  18.131  -4.888  1.00  0.00     0.051 A
ATOM     36  N   UNL     1      30.449  17.214  -6.350  1.00  0.00    -0.132 NA
ATOM     37  C   UNL     1      30.067  18.222  -5.543  1.00  0.00     0.151 A
BRANCH  37  38
ATOM     38  N   UNL     1      31.007  19.184  -5.193  1.00  0.00    -0.350 N
ATOM     39  C   UNL     1      32.419  18.867  -5.026  1.00  0.00     0.134 C
ATOM     40  C   UNL     1      30.511  20.585  -5.121  1.00  0.00     0.098 C
ATOM     41  C   UNL     1      33.242  19.738  -5.940  1.00  0.00     0.158 C
ATOM     42  C   UNL     1      31.565  21.522  -4.543  1.00  0.00     0.162 C
ATOM     43  S   UNL     1      33.120  21.424  -5.398  1.00  0.00     0.154 S
ATOM     44  O   UNL     1      34.166  21.634  -4.413  1.00  0.00    -0.229 OA
ATOM     45  O   UNL     1      33.054  22.266  -6.578  1.00  0.00    -0.229 OA
BRANCH  40  46
ATOM     46  C   UNL     1      29.978  21.080  -6.508  1.00  0.00     0.026 C
BRANCH  46  47
ATOM     47  C   UNL     1      28.457  21.318  -6.488  1.00  0.00     0.002 C
ATOM     48  G   UNL     1      27.673  20.481  -7.521  1.00  0.00     0.000 C
ENDBRANCH  46  47
ENDBRANCH  40  46
ENDBRANCH  37  38
ENDBRANCH  10  32
TORSDOF 2
ENDMDL
MODEL 4
REMARK VINA RESULT:      -9.4      3.541      5.829
REMARK SMILES NC(=O)c1cnc2c3c1[nH]c1cc(ccc13)-c1ccc(nn1)N1CCS(=O)(=O)C[C@H]1CCC[C@H]1C[C@H]1[C@H](C(F)(F)F)N2
REMARK SMILES IDX 4 1 5 2 6 3 7 4 8 5 9 6 10 7 11 8 12 9 13 10 14 11 15 12
REMARK SMILES IDX 16 13 2 15 1 16 3 17 42 20 37 22 36 23 35 24 34 25 33 26
REMARK SMILES IDX 38 28 39 29 40 30 41 31 17 32 18 33 22 34 19 35 21 36 20 37
REMARK SMILES IDX 23 38 24 39 30 40 25 41 29 42 26 43 27 44 28 45 31 46 32 47
REMARK H PARENT 10 14 1 18 1 19 42 21
REMARK Flexibility Score:   48.900
ROOT
ATOM      1  C   UNL     1      33.356  10.408  -2.687  1.00  0.00     0.082 A
ATOM      2  C   UNL     1      32.461   9.344  -2.716  1.00  0.00     0.129 A
ATOM      3  N   UNL     1      31.226   9.358  -3.290  1.00  0.00    -0.238 NA
ATOM      4  C   UNL     1      30.803  10.482  -3.910  1.00  0.00     0.136 A
ATOM      5  C   UNL     1      31.692  11.568  -4.045  1.00  0.00     0.051 A
ATOM      6  C   UNL     1      32.912  11.543  -3.374  1.00  0.00     0.065 A
ATOM      7  N   UNL     1      33.466  12.802  -3.504  1.00  0.00    -0.354 N
ATOM      8  C   UNL     1      32.637  13.627  -4.227  1.00  0.00     0.047 A
ATOM      9  C   UNL     1      32.663  15.016  -4.439  1.00  0.00     0.037 A
ATOM     10  C   UNL     1      31.610  15.582  -5.184  1.00  0.00     0.004 A
ATOM     11  C   UNL     1      30.701  14.735  -5.849  1.00  0.00     0.011 A
ATOM     12  C   UNL     1      30.680  13.365  -5.612  1.00  0.00     0.012 A
ATOM     13  C   UNL     1      31.608  12.823  -4.712  1.00  0.00     0.011 A
ATOM     14  H   UNL     1      34.326  13.080  -3.044  1.00  0.00     0.167 HD
ENDROOT
BRANCH   1  15
ATOM     15  C   UNL     1      34.662  10.409  -1.997  1.00  0.00     0.252 C
ATOM     16  N   UNL     1      35.035   9.306  -1.283  1.00  0.00    -0.365 N
ATOM     17  O   UNL     1      35.406  11.382  -2.066  1.00  0.00    -0.269 OA
ATOM     18  H   UNL     1      35.938   9.346  -0.824  1.00  0.00     0.159 HD
ATOM     19  H   UNL     1      34.504   8.456  -1.184  1.00  0.00     0.159 HD
ENDBRANCH   1  15
BRANCH   4  20
ATOM     20  N   UNL     1      29.470  10.557  -4.297  1.00  0.00    -0.358 N
ATOM     21  H   UNL     1      29.380  11.318  -4.971  1.00  0.00     0.162 HD
BRANCH  20  22
ATOM     22  C   UNL     1      28.827   9.310  -4.836  1.00  0.00     0.189 C
BRANCH  22  23
ATOM     23  C   UNL     1      29.664   8.577  -5.872  1.00  0.00     0.024 C
ATOM     24  C   UNL     1      29.052   7.557  -6.809  1.00  0.00     0.010 C
ATOM     25  C   UNL     1      30.094   7.111  -5.820  1.00  0.00    -0.005 C
BRANCH  25  26
ATOM     26  C   UNL     1      29.693   6.064  -4.815  1.00  0.00     0.004 C
ATOM     27  G   UNL     1      28.315   5.480  -5.194  1.00  0.00     0.000 C
ENDBRANCH  25  26
ENDBRANCH  22  23
BRANCH  22  28
ATOM     28  C   UNL     1      27.398   9.601  -5.390  1.00  0.00     0.408 C
ATOM     29  F   UNL     1      26.880  10.730  -4.847  1.00  0.00    -0.169 F
ATOM     30  F   UNL     1      27.441   9.799  -6.733  1.00  0.00    -0.169 F
ATOM     31  F   UNL     1      26.522   8.599  -5.154  1.00  0.00    -0.169 F
ENDBRANCH  22  28
ENDBRANCH  20  22
ENDBRANCH   4  20
BRANCH  10  32
ATOM     32  C   UNL     1      31.224  16.996  -5.029  1.00  0.00     0.093 A
ATOM     33  C   UNL     1      31.555  17.962  -5.967  1.00  0.00     0.035 A
ATOM     34  N   UNL     1      30.136  17.157  -4.248  1.00  0.00    -0.148 NA
ATOM     35  C   UNL     1      30.588  18.908  -6.303  1.00  0.00     0.051 A
ATOM     36  N   UNL     1      29.195  18.082  -4.591  1.00  0.00    -0.132 NA
ATOM     37  C   UNL     1      29.342  18.848  -5.689  1.00  0.00     0.151 A
BRANCH  37  38
ATOM     38  N   UNL     1      28.201  19.340  -6.313  1.00  0.00    -0.350 N
ATOM     39  C   UNL     1      28.113  20.706  -6.807  1.00  0.00     0.134 C
ATOM     40  C   UNL     1      27.117  18.352  -6.560  1.00  0.00     0.098 C
ATOM     41  C   UNL     1      27.776  20.689  -8.277  1.00  0.00     0.158 C
ATOM     42  C   UNL     1      25.848  19.029  -7.063  1.00  0.00     0.162 C
ATOM     43  S   UNL     1      26.131  20.056  -8.485  1.00  0.00     0.154 S
ATOM     44  O   UNL     1      25.222  21.184  -8.388  1.00  0.00    -0.229 OA
ATOM     45  O   UNL     1      26.125  19.219  -9.671  1.00  0.00    -0.229 OA
BRANCH  40  46
ATOM     46  C   UNL     1      27.590  17.202  -7.512  1.00  0.00     0.026 C
BRANCH  46  47
ATOM     47  C   UNL     1      27.433  15.814  -6.863  1.00  0.00     0.002 C
ATOM     48  G   UNL     1      26.687  15.830  -5.512  1.00  0.00     0.000 C
ENDBRANCH  46  47
ENDBRANCH  40  46
ENDBRANCH  37  38
ENDBRANCH  10  32
TORSDOF 2
ENDMDL
MODEL 5
REMARK VINA RESULT:      -9.4      3.183      5.783
REMARK SMILES NC(=O)c1cnc2c3c1[nH]c1cc(ccc13)-c1ccc(nn1)N1CCS(=O)(=O)C[C@H]1CCC[C@H]1C[C@H]1[C@H](C(F)(F)F)N2
REMARK SMILES IDX 4 1 5 2 6 3 7 4 8 5 9 6 10 7 11 8 12 9 13 10 14 11 15 12
REMARK SMILES IDX 16 13 2 15 1 16 3 17 42 20 37 22 36 23 35 24 34 25 33 26
REMARK SMILES IDX 38 28 39 29 40 30 41 31 17 32 18 33 22 34 19 35 21 36 20 37
REMARK SMILES IDX 23 38 24 39 30 40 25 41 29 42 26 43 27 44 28 45 31 46 32 47
REMARK H PARENT 10 14 1 18 1 19 42 21
REMARK Flexibility Score:   48.900
ROOT
ATOM      1  C   UNL     1      33.082   9.477  -2.482  1.00  0.00     0.082 A
ATOM      2  C   UNL     1      32.214   8.519  -2.993  1.00  0.00     0.129 A
ATOM      3  N   UNL     1      31.284   8.727  -3.966  1.00  0.00    -0.238 NA
ATOM      4  C   UNL     1      31.175   9.955  -4.520  1.00  0.00     0.136 A
ATOM      5  C   UNL     1      32.100  10.955  -4.158  1.00  0.00     0.051 A
ATOM      6  C   UNL     1      32.979  10.726  -3.102  1.00  0.00     0.065 A
ATOM      7  N   UNL     1      33.601  11.930  -2.831  1.00  0.00    -0.354 N
ATOM      8  C   UNL     1      33.140  12.917  -3.672  1.00  0.00     0.047 A
ATOM      9  C   UNL     1      33.308  14.311  -3.647  1.00  0.00     0.037 A
ATOM     10  C   UNL     1      32.637  15.067  -4.628  1.00  0.00     0.004 A
ATOM     11  C   UNL     1      32.002  14.403  -5.697  1.00  0.00     0.011 A
ATOM     12  C   UNL     1      31.830  13.023  -5.693  1.00  0.00     0.012 A
ATOM     13  C   UNL     1      32.329  12.285  -4.611  1.00  0.00     0.011 A
ATOM     14  H   UNL     1      34.240  12.063  -2.055  1.00  0.00     0.167 HD
ENDROOT
BRANCH   1  15
ATOM     15  C   UNL     1      34.036   9.263  -1.373  1.00  0.00     0.252 C
ATOM     16  N   UNL     1      35.370   9.178  -1.654  1.00  0.00    -0.365 N
ATOM     17  O   UNL     1      33.641   9.170  -0.216  1.00  0.00    -0.269 OA
ATOM     18  H   UNL     1      35.991   9.031  -0.867  1.00  0.00     0.159 HD
ATOM     19  H   UNL     1      35.790   9.261  -2.566  1.00  0.00     0.159 HD
ENDBRANCH   1  15
BRANCH   4  20
ATOM     20  N   UNL     1      30.088  10.209  -5.346  1.00  0.00    -0.358 N
ATOM     21  H   UNL     1      30.441  10.380  -6.289  1.00  0.00     0.162 HD
BRANCH  20  22
ATOM     22  C   UNL     1      28.985   9.188  -5.386  1.00  0.00     0.189 C
BRANCH  22  23
ATOM     23  C   UNL     1      29.113   8.178  -6.514  1.00  0.00     0.024 C
ATOM     24  C   UNL     1      28.005   7.195  -6.827  1.00  0.00     0.010 C
ATOM     25  C   UNL     1      29.338   6.674  -6.365  1.00  0.00    -0.005 C
BRANCH  25  26
ATOM     26  C   UNL     1      29.363   5.862  -5.096  1.00  0.00     0.004 C
ATOM     27  G   UNL     1      28.282   4.763  -5.161  1.00  0.00     0.000 C
ENDBRANCH  25  26
ENDBRANCH  22  23
BRANCH  22  28
ATOM     28  C   UNL     1      27.581   9.868  -5.412  1.00  0.00     0.408 C
ATOM     29  F   UNL     1      27.602  11.067  -4.780  1.00  0.00    -0.169 F
ATOM     30  F   UNL     1      27.197  10.111  -6.693  1.00  0.00    -0.169 F
ATOM     31  F   UNL     1      26.617   9.121  -4.833  1.00  0.00    -0.169 F
ENDBRANCH  22  28
ENDBRANCH  20  22
ENDBRANCH   4  20
BRANCH  10  32
ATOM     32  C   UNL     1      32.287  16.482  -4.412  1.00  0.00     0.093 A
ATOM     33  C   UNL     1      32.580  17.468  -5.341  1.00  0.00     0.035 A
ATOM     34  N   UNL     1      31.251  16.640  -3.562  1.00  0.00    -0.148 NA
ATOM     35  C   UNL     1      31.613  18.440  -5.592  1.00  0.00     0.051 A
ATOM     36  N   UNL     1      30.309  17.590  -3.823  1.00  0.00    -0.132 NA
ATOM     37  C   UNL     1      30.405  18.385  -4.906  1.00  0.00     0.151 A
BRANCH  37  38
ATOM     38  N   UNL     1      29.239  18.913  -5.447  1.00  0.00    -0.350 N
ATOM     39  C   UNL     1      29.100  20.328  -5.764  1.00  0.00     0.134 C
ATOM     40  C   UNL     1      28.180  17.930  -5.800  1.00  0.00     0.098 C
ATOM     41  C   UNL     1      28.737  20.484  -7.219  1.00  0.00     0.158 C
ATOM     42  C   UNL     1      26.882  18.623  -6.195  1.00  0.00     0.162 C
ATOM     43  S   UNL     1      27.107  19.829  -7.481  1.00  0.00     0.154 S
ATOM     44  O   UNL     1      26.167  20.906  -7.230  1.00  0.00    -0.229 OA
ATOM     45  O   UNL     1      27.105  19.147  -8.763  1.00  0.00    -0.229 OA
BRANCH  40  46
ATOM     46  C   UNL     1      28.670  16.924  -6.896  1.00  0.00     0.026 C
BRANCH  46  47
ATOM     47  C   UNL     1      28.283  15.472  -6.560  1.00  0.00     0.002 C
ATOM     48  G   UNL     1      28.181  15.180  -5.048  1.00  0.00     0.000 C
ENDBRANCH  46  47
ENDBRANCH  40  46
ENDBRANCH  37  38
ENDBRANCH  10  32
TORSDOF 2
ENDMDL
MODEL 6
REMARK VINA RESULT:      -9.4      1.753      2.064
REMARK SMILES NC(=O)c1cnc2c3c1[nH]c1cc(ccc13)-c1ccc(nn1)N1CCS(=O)(=O)C[C@H]1CCC[C@H]1C[C@H]1[C@H](C(F)(F)F)N2
REMARK SMILES IDX 4 1 5 2 6 3 7 4 8 5 9 6 10 7 11 8 12 9 13 10 14 11 15 12
REMARK SMILES IDX 16 13 2 15 1 16 3 17 42 20 37 22 36 23 35 24 34 25 33 26
REMARK SMILES IDX 38 28 39 29 40 30 41 31 17 32 18 33 22 34 19 35 21 36 20 37
REMARK SMILES IDX 23 38 24 39 30 40 25 41 29 42 26 43 27 44 28 45 31 46 32 47
REMARK H PARENT 10 14 1 18 1 19 42 21
REMARK Flexibility Score:   48.900
ROOT
ATOM      1  C   UNL     1      29.425   8.159  -5.508  1.00  0.00     0.082 A
ATOM      2  C   UNL     1      30.527   7.799  -4.738  1.00  0.00     0.129 A
ATOM      3  N   UNL     1      31.247   8.635  -3.940  1.00  0.00    -0.238 NA
ATOM      4  C   UNL     1      30.880   9.933  -3.847  1.00  0.00     0.136 A
ATOM      5  C   UNL     1      29.699  10.360  -4.487  1.00  0.00     0.051 A
ATOM      6  C   UNL     1      29.041   9.496  -5.359  1.00  0.00     0.065 A
ATOM      7  N   UNL     1      28.067  10.238  -5.998  1.00  0.00    -0.354 N
ATOM      8  C   UNL     1      28.090  11.545  -5.569  1.00  0.00     0.047 A
ATOM      9  C   UNL     1      27.453  12.696  -6.063  1.00  0.00     0.037 A
ATOM     10  C   UNL     1      27.742  13.923  -5.433  1.00  0.00     0.004 A
ATOM     11  C   UNL     1      28.478  13.925  -4.232  1.00  0.00     0.011 A
ATOM     12  C   UNL     1      29.115  12.779  -3.769  1.00  0.00     0.012 A
ATOM     13  C   UNL     1      28.990  11.594  -4.508  1.00  0.00     0.011 A
ATOM     14  H   UNL     1      27.486   9.869  -6.743  1.00  0.00     0.167 HD
ENDROOT
BRANCH   1  15
ATOM     15  C   UNL     1      28.696   7.264  -6.430  1.00  0.00     0.252 C
ATOM     16  N   UNL     1      27.555   6.653  -5.996  1.00  0.00    -0.365 N
ATOM     17  O   UNL     1      29.103   7.076  -7.572  1.00  0.00    -0.269 OA
ATOM     18  H   UNL     1      27.085   6.047  -6.659  1.00  0.00     0.159 HD
ATOM     19  H   UNL     1      27.134   6.760  -5.087  1.00  0.00     0.159 HD
ENDBRANCH   1  15
BRANCH   4  20
ATOM     20  N   UNL     1      31.743  10.815  -3.208  1.00  0.00    -0.358 N
ATOM     21  H   UNL     1      32.153  10.332  -2.407  1.00  0.00     0.162 HD
BRANCH  20  22
ATOM     22  C   UNL     1      32.823  11.457  -4.032  1.00  0.00     0.189 C
BRANCH  22  23
ATOM     23  C   UNL     1      34.219  10.923  -3.754  1.00  0.00     0.024 C
ATOM     24  C   UNL     1      34.497  10.002  -2.585  1.00  0.00     0.010 C
ATOM     25  C   UNL     1      35.148  11.358  -2.621  1.00  0.00    -0.005 C
BRANCH  25  26
ATOM     26  C   UNL     1      34.846  12.301  -1.486  1.00  0.00     0.004 C
ATOM     27  G   UNL     1      35.925  12.160  -0.392  1.00  0.00     0.000 C
ENDBRANCH  25  26
ENDBRANCH  22  23
BRANCH  22  28
ATOM     28  C   UNL     1      32.792  13.012  -3.898  1.00  0.00     0.408 C
ATOM     29  F   UNL     1      32.035  13.574  -4.872  1.00  0.00    -0.169 F
ATOM     30  F   UNL     1      32.234  13.374  -2.714  1.00  0.00    -0.169 F
ATOM     31  F   UNL     1      34.018  13.575  -3.961  1.00  0.00    -0.169 F
ENDBRANCH  22  28
ENDBRANCH  20  22
ENDBRANCH   4  20
BRANCH  10  32
ATOM     32  C   UNL     1      27.598  15.209  -6.138  1.00  0.00     0.093 A
ATOM     33  C   UNL     1      27.058  16.331  -5.530  1.00  0.00     0.035 A
ATOM     34  N   UNL     1      28.473  15.347  -7.155  1.00  0.00    -0.148 NA
ATOM     35  C   UNL     1      27.670  17.562  -5.762  1.00  0.00     0.051 A
ATOM     36  N   UNL     1      29.069  16.554  -7.369  1.00  0.00    -0.132 NA
ATOM     37  C   UNL     1      28.786  17.616  -6.589  1.00  0.00     0.151 A
BRANCH  37  38
ATOM     38  N   UNL     1      29.748  18.609  -6.446  1.00  0.00    -0.350 N
ATOM     39  C   UNL     1      29.529  19.974  -6.903  1.00  0.00     0.134 C
ATOM     40  C   UNL     1      30.969  18.229  -5.686  1.00  0.00     0.098 C
ATOM     41  C   UNL     1      29.718  20.927  -5.749  1.00  0.00     0.158 C
ATOM     42  C   UNL     1      32.033  19.318  -5.758  1.00  0.00     0.162 C
ATOM     43  S   UNL     1      31.425  20.911  -5.260  1.00  0.00     0.154 S
ATOM     44  O   UNL     1      32.111  21.904  -6.068  1.00  0.00    -0.229 OA
ATOM     45  O   UNL     1      31.472  20.995  -3.812  1.00  0.00    -0.229 OA
BRANCH  40  46
ATOM     46  C   UNL     1      30.629  17.832  -4.209  1.00  0.00     0.026 C
BRANCH  46  47
ATOM     47  C   UNL     1      31.491  16.654  -3.717  1.00  0.00     0.002 C
ATOM     48  G   UNL     1      30.995  16.016  -2.402  1.00  0.00     0.000 C
ENDBRANCH  46  47
ENDBRANCH  40  46
ENDBRANCH  37  38
ENDBRANCH  10  32
TORSDOF 2
ENDMDL
MODEL 7
REMARK VINA RESULT:      -9.4      1.873      2.386
REMARK SMILES NC(=O)c1cnc2c3c1[nH]c1cc(ccc13)-c1ccc(nn1)N1CCS(=O)(=O)C[C@H]1CCC[C@H]1C[C@H]1[C@H](C(F)(F)F)N2
REMARK SMILES IDX 4 1 5 2 6 3 7 4 8 5 9 6 10 7 11 8 12 9 13 10 14 11 15 12
REMARK SMILES IDX 16 13 2 15 1 16 3 17 42 20 37 22 36 23 35 24 34 25 33 26
REMARK SMILES IDX 38 28 39 29 40 30 41 31 17 32 18 33 22 34 19 35 21 36 20 37
REMARK SMILES IDX 23 38 24 39 30 40 25 41 29 42 26 43 27 44 28 45 31 46 32 47
REMARK H PARENT 10 14 1 18 1 19 42 21
REMARK Flexibility Score:   48.900
ROOT
ATOM      1  C   UNL     1      28.802   8.805  -6.396  1.00  0.00     0.082 A
ATOM      2  C   UNL     1      29.831   8.365  -5.569  1.00  0.00     0.129 A
ATOM      3  N   UNL     1      30.463   9.110  -4.621  1.00  0.00    -0.238 NA
ATOM      4  C   UNL     1      30.074  10.389  -4.422  1.00  0.00     0.136 A
ATOM      5  C   UNL     1      28.953  10.882  -5.122  1.00  0.00     0.051 A
ATOM      6  C   UNL     1      28.389  10.117  -6.140  1.00  0.00     0.065 A
ATOM      7  N   UNL     1      27.471  10.923  -6.784  1.00  0.00    -0.354 N
ATOM      8  C   UNL     1      27.437  12.175  -6.216  1.00  0.00     0.047 A
ATOM      9  C   UNL     1      26.836  13.372  -6.640  1.00  0.00     0.037 A
ATOM     10  C   UNL     1      27.049  14.523  -5.856  1.00  0.00     0.004 A
ATOM     11  C   UNL     1      27.669  14.396  -4.598  1.00  0.00     0.011 A
ATOM     12  C   UNL     1      28.274  13.207  -4.204  1.00  0.00     0.012 A
ATOM     13  C   UNL     1      28.233  12.110  -5.075  1.00  0.00     0.011 A
ATOM     14  H   UNL     1      26.966  10.635  -7.616  1.00  0.00     0.167 HD
ENDROOT
BRANCH   1  15
ATOM     15  C   UNL     1      28.174   8.015  -7.475  1.00  0.00     0.252 C
ATOM     16  N   UNL     1      27.805   6.724  -7.222  1.00  0.00    -0.365 N
ATOM     17  O   UNL     1      27.980   8.508  -8.581  1.00  0.00    -0.269 OA
ATOM     18  H   UNL     1      27.378   6.216  -7.987  1.00  0.00     0.159 HD
ATOM     19  H   UNL     1      27.906   6.240  -6.344  1.00  0.00     0.159 HD
ENDBRANCH   1  15
BRANCH   4  20
ATOM     20  N   UNL     1      30.862  11.198  -3.613  1.00  0.00    -0.358 N
ATOM     21  H   UNL     1      30.901  10.774  -2.685  1.00  0.00     0.162 HD
BRANCH  20  22
ATOM     22  C   UNL     1      32.249  11.526  -4.090  1.00  0.00     0.189 C
BRANCH  22  23
ATOM     23  C   UNL     1      33.321  11.401  -3.019  1.00  0.00     0.024 C
ATOM     24  C   UNL     1      34.590  10.610  -3.256  1.00  0.00     0.010 C
ATOM     25  C   UNL     1      33.632  10.158  -2.187  1.00  0.00    -0.005 C
BRANCH  25  26
ATOM     26  C   UNL     1      33.041   8.780  -2.324  1.00  0.00     0.004 C
ATOM     27  G   UNL     1      31.806   8.649  -1.407  1.00  0.00     0.000 C
ENDBRANCH  25  26
ENDBRANCH  22  23
BRANCH  22  28
ATOM     28  C   UNL     1      32.302  12.934  -4.761  1.00  0.00     0.408 C
ATOM     29  F   UNL     1      32.546  12.836  -6.091  1.00  0.00    -0.169 F
ATOM     30  F   UNL     1      31.107  13.567  -4.630  1.00  0.00    -0.169 F
ATOM     31  F   UNL     1      33.250  13.739  -4.232  1.00  0.00    -0.169 F
ENDBRANCH  22  28
ENDBRANCH  20  22
ENDBRANCH   4  20
BRANCH  10  32
ATOM     32  C   UNL     1      26.957  15.878  -6.428  1.00  0.00     0.093 A
ATOM     33  C   UNL     1      26.587  16.978  -5.671  1.00  0.00     0.035 A
ATOM     34  N   UNL     1      27.734  16.038  -7.519  1.00  0.00    -0.148 NA
ATOM     35  C   UNL     1      27.285  18.170  -5.862  1.00  0.00     0.051 A
ATOM     36  N   UNL     1      28.416  17.206  -7.691  1.00  0.00    -0.132 NA
ATOM     37  C   UNL     1      28.313  18.209  -6.797  1.00  0.00     0.151 A
BRANCH  37  38
ATOM     38  N   UNL     1      29.373  19.099  -6.674  1.00  0.00    -0.350 N
ATOM     39  C   UNL     1      29.224  20.525  -6.930  1.00  0.00     0.134 C
ATOM     40  C   UNL     1      30.642  18.533  -6.143  1.00  0.00     0.098 C
ATOM     41  C   UNL     1      29.648  21.302  -5.710  1.00  0.00     0.158 C
ATOM     42  C   UNL     1      31.784  19.538  -6.234  1.00  0.00     0.162 C
ATOM     43  S   UNL     1      31.395  21.095  -5.471  1.00  0.00     0.154 S
ATOM     44  O   UNL     1      32.060  22.130  -6.243  1.00  0.00    -0.229 OA
ATOM     45  O   UNL     1      31.637  20.986  -4.044  1.00  0.00    -0.229 OA
BRANCH  40  46
ATOM     46  C   UNL     1      30.462  17.974  -4.691  1.00  0.00     0.026 C
BRANCH  46  47
ATOM     47  C   UNL     1      31.583  16.991  -4.308  1.00  0.00     0.002 C
ATOM     48  G   UNL     1      31.335  16.234  -2.986  1.00  0.00     0.000 C
ENDBRANCH  46  47
ENDBRANCH  40  46
ENDBRANCH  37  38
ENDBRANCH  10  32
TORSDOF 2
ENDMDL
MODEL 8
REMARK VINA RESULT:      -9.3      3.349      5.866
REMARK SMILES NC(=O)c1cnc2c3c1[nH]c1cc(ccc13)-c1ccc(nn1)N1CCS(=O)(=O)C[C@H]1CCC[C@H]1C[C@H]1[C@H](C(F)(F)F)N2
REMARK SMILES IDX 4 1 5 2 6 3 7 4 8 5 9 6 10 7 11 8 12 9 13 10 14 11 15 12
REMARK SMILES IDX 16 13 2 15 1 16 3 17 42 20 37 22 36 23 35 24 34 25 33 26
REMARK SMILES IDX 38 28 39 29 40 30 41 31 17 32 18 33 22 34 19 35 21 36 20 37
REMARK SMILES IDX 23 38 24 39 30 40 25 41 29 42 26 43 27 44 28 45 31 46 32 47
REMARK H PARENT 10 14 1 18 1 19 42 21
REMARK Flexibility Score:   48.900
ROOT
ATOM      1  C   UNL     1      33.902  10.092  -2.133  1.00  0.00     0.082 A
ATOM      2  C   UNL     1      33.172   8.912  -2.240  1.00  0.00     0.129 A
ATOM      3  N   UNL     1      32.004   8.758  -2.922  1.00  0.00    -0.238 NA
ATOM      4  C   UNL     1      31.483   9.817  -3.580  1.00  0.00     0.136 A
ATOM      5  C   UNL     1      32.218  11.019  -3.637  1.00  0.00     0.051 A
ATOM      6  C   UNL     1      33.364  11.160  -2.859  1.00  0.00     0.065 A
ATOM      7  N   UNL     1      33.744  12.485  -2.942  1.00  0.00    -0.354 N
ATOM      8  C   UNL     1      32.874  13.193  -3.738  1.00  0.00     0.047 A
ATOM      9  C   UNL     1      32.722  14.573  -3.950  1.00  0.00     0.037 A
ATOM     10  C   UNL     1      31.670  14.993  -4.788  1.00  0.00     0.004 A
ATOM     11  C   UNL     1      30.953  14.034  -5.529  1.00  0.00     0.011 A
ATOM     12  C   UNL     1      31.105  12.672  -5.292  1.00  0.00     0.012 A
ATOM     13  C   UNL     1      32.016  12.257  -4.311  1.00  0.00     0.011 A
ATOM     14  H   UNL     1      34.512  12.878  -2.407  1.00  0.00     0.167 HD
ENDROOT
BRANCH   1  15
ATOM     15  C   UNL     1      35.128  10.270  -1.328  1.00  0.00     0.252 C
ATOM     16  N   UNL     1      35.411   9.368  -0.343  1.00  0.00    -0.365 N
ATOM     17  O   UNL     1      35.887  11.210  -1.543  1.00  0.00    -0.269 OA
ATOM     18  H   UNL     1      36.261   9.525   0.187  1.00  0.00     0.159 HD
ATOM     19  H   UNL     1      34.862   8.557  -0.106  1.00  0.00     0.159 HD
ENDBRANCH   1  15
BRANCH   4  20
ATOM     20  N   UNL     1      30.193   9.707  -4.084  1.00  0.00    -0.358 N
ATOM     21  H   UNL     1      29.752  10.627  -4.028  1.00  0.00     0.162 HD
BRANCH  20  22
ATOM     22  C   UNL     1      30.029   9.139  -5.466  1.00  0.00     0.189 C
BRANCH  22  23
ATOM     23  C   UNL     1      28.925   9.795  -6.281  1.00  0.00     0.024 C
ATOM     24  C   UNL     1      27.984  10.810  -5.669  1.00  0.00     0.010 C
ATOM     25  C   UNL     1      27.428   9.507  -6.178  1.00  0.00    -0.005 C
BRANCH  25  26
ATOM     26  C   UNL     1      26.721   8.621  -5.186  1.00  0.00     0.004 C
ATOM     27  G   UNL     1      25.856   7.587  -5.937  1.00  0.00     0.000 C
ENDBRANCH  25  26
ENDBRANCH  22  23
BRANCH  22  28
ATOM     28  C   UNL     1      29.837   7.591  -5.426  1.00  0.00     0.408 C
ATOM     29  F   UNL     1      29.423   7.115  -6.626  1.00  0.00    -0.169 F
ATOM     30  F   UNL     1      31.015   6.975  -5.149  1.00  0.00    -0.169 F
ATOM     31  F   UNL     1      28.940   7.190  -4.499  1.00  0.00    -0.169 F
ENDBRANCH  22  28
ENDBRANCH  20  22
ENDBRANCH   4  20
BRANCH  10  32
ATOM     32  C   UNL     1      31.075  16.337  -4.671  1.00  0.00     0.093 A
ATOM     33  C   UNL     1      31.385  17.363  -5.550  1.00  0.00     0.035 A
ATOM     34  N   UNL     1      29.886  16.327  -4.034  1.00  0.00    -0.148 NA
ATOM     35  C   UNL     1      30.346  18.177  -5.999  1.00  0.00     0.051 A
ATOM     36  N   UNL     1      28.876  17.124  -4.487  1.00  0.00    -0.132 NA
ATOM     37  C   UNL     1      29.053  17.932  -5.550  1.00  0.00     0.151 A
BRANCH  37  38
ATOM     38  N   UNL     1      27.943  18.280  -6.311  1.00  0.00    -0.350 N
ATOM     39  C   UNL     1      27.624  19.664  -6.634  1.00  0.00     0.134 C
ATOM     40  C   UNL     1      27.165  17.148  -6.884  1.00  0.00     0.098 C
ATOM     41  C   UNL     1      27.536  19.824  -8.130  1.00  0.00     0.158 C
ATOM     42  C   UNL     1      25.871  17.630  -7.528  1.00  0.00     0.162 C
ATOM     43  S   UNL     1      26.132  18.915  -8.727  1.00  0.00     0.154 S
ATOM     44  O   UNL     1      24.986  19.804  -8.660  1.00  0.00    -0.229 OA
ATOM     45  O   UNL     1      26.504  18.304  -9.989  1.00  0.00    -0.229 OA
BRANCH  40  46
ATOM     46  C   UNL     1      28.032  16.293  -7.870  1.00  0.00     0.026 C
BRANCH  46  47
ATOM     47  C   UNL     1      28.061  14.807  -7.470  1.00  0.00     0.002 C
ATOM     48  G   UNL     1      27.252  14.479  -6.198  1.00  0.00     0.000 C
ENDBRANCH  46  47
ENDBRANCH  40  46
ENDBRANCH  37  38
ENDBRANCH  10  32
TORSDOF 2
ENDMDL
MODEL 9
REMARK VINA RESULT:      -9.3      3.120      5.659
REMARK SMILES NC(=O)c1cnc2c3c1[nH]c1cc(ccc13)-c1ccc(nn1)N1CCS(=O)(=O)C[C@H]1CCC[C@H]1C[C@H]1[C@H](C(F)(F)F)N2
REMARK SMILES IDX 4 1 5 2 6 3 7 4 8 5 9 6 10 7 11 8 12 9 13 10 14 11 15 12
REMARK SMILES IDX 16 13 2 15 1 16 3 17 42 20 37 22 36 23 35 24 34 25 33 26
REMARK SMILES IDX 38 28 39 29 40 30 41 31 17 32 18 33 22 34 19 35 21 36 20 37
REMARK SMILES IDX 23 38 24 39 30 40 25 41 29 42 26 43 27 44 28 45 31 46 32 47
REMARK H PARENT 10 14 1 18 1 19 42 21
REMARK Flexibility Score:   48.900
ROOT
ATOM      1  C   UNL     1      32.943   9.460  -2.565  1.00  0.00     0.082 A
ATOM      2  C   UNL     1      32.082   8.522  -3.126  1.00  0.00     0.129 A
ATOM      3  N   UNL     1      31.182   8.763  -4.118  1.00  0.00    -0.238 NA
ATOM      4  C   UNL     1      31.097  10.006  -4.642  1.00  0.00     0.136 A
ATOM      5  C   UNL     1      32.019  10.989  -4.228  1.00  0.00     0.051 A
ATOM      6  C   UNL     1      32.867  10.726  -3.155  1.00  0.00     0.065 A
ATOM      7  N   UNL     1      33.489  11.917  -2.835  1.00  0.00    -0.354 N
ATOM      8  C   UNL     1      33.059  12.929  -3.661  1.00  0.00     0.047 A
ATOM      9  C   UNL     1      33.237  14.321  -3.595  1.00  0.00     0.037 A
ATOM     10  C   UNL     1      32.599  15.107  -4.574  1.00  0.00     0.004 A
ATOM     11  C   UNL     1      31.990  14.477  -5.677  1.00  0.00     0.011 A
ATOM     12  C   UNL     1      31.808  13.099  -5.715  1.00  0.00     0.012 A
ATOM     13  C   UNL     1      32.271  12.329  -4.640  1.00  0.00     0.011 A
ATOM     14  H   UNL     1      34.107  12.024  -2.038  1.00  0.00     0.167 HD
ENDROOT
BRANCH   1  15
ATOM     15  C   UNL     1      33.864   9.209  -1.437  1.00  0.00     0.252 C
ATOM     16  N   UNL     1      35.205   9.130  -1.682  1.00  0.00    -0.365 N
ATOM     17  O   UNL     1      33.435   9.080  -0.295  1.00  0.00    -0.269 OA
ATOM     18  H   UNL     1      35.804   8.957  -0.882  1.00  0.00     0.159 HD
ATOM     19  H   UNL     1      35.653   9.241  -2.578  1.00  0.00     0.159 HD
ENDBRANCH   1  15
BRANCH   4  20
ATOM     20  N   UNL     1      30.035  10.290  -5.492  1.00  0.00    -0.358 N
ATOM     21  H   UNL     1      29.940   9.514  -6.148  1.00  0.00     0.162 HD
BRANCH  20  22
ATOM     22  C   UNL     1      28.705  10.606  -4.868  1.00  0.00     0.189 C
BRANCH  22  23
ATOM     23  C   UNL     1      27.613   9.599  -5.188  1.00  0.00     0.024 C
ATOM     24  C   UNL     1      27.940   8.202  -5.672  1.00  0.00     0.010 C
ATOM     25  C   UNL     1      27.185   9.136  -6.580  1.00  0.00    -0.005 C
BRANCH  25  26
ATOM     26  C   UNL     1      27.817   9.476  -7.904  1.00  0.00     0.004 C
ATOM     27  G   UNL     1      28.771   8.341  -8.332  1.00  0.00     0.000 C
ENDBRANCH  25  26
ENDBRANCH  22  23
BRANCH  22  28
ATOM     28  C   UNL     1      28.240  12.053  -5.222  1.00  0.00     0.408 C
ATOM     29  F   UNL     1      26.890  12.164  -5.162  1.00  0.00    -0.169 F
ATOM     30  F   UNL     1      28.743  12.944  -4.328  1.00  0.00    -0.169 F
ATOM     31  F   UNL     1      28.625  12.450  -6.454  1.00  0.00    -0.169 F
ENDBRANCH  22  28
ENDBRANCH  20  22
ENDBRANCH   4  20
BRANCH  10  32
ATOM     32  C   UNL     1      32.254  16.519  -4.330  1.00  0.00     0.093 A
ATOM     33  C   UNL     1      32.604  17.531  -5.211  1.00  0.00     0.035 A
ATOM     34  N   UNL     1      31.178  16.662  -3.529  1.00  0.00    -0.148 NA
ATOM     35  C   UNL     1      31.660  18.522  -5.479  1.00  0.00     0.051 A
ATOM     36  N   UNL     1      30.259  17.632  -3.805  1.00  0.00    -0.132 NA
ATOM     37  C   UNL     1      30.419  18.459  -4.857  1.00  0.00     0.151 A
BRANCH  37  38
ATOM     38  N   UNL     1      29.287  19.019  -5.437  1.00  0.00    -0.350 N
ATOM     39  C   UNL     1      29.210  20.430  -5.790  1.00  0.00     0.134 C
ATOM     40  C   UNL     1      28.200  18.068  -5.795  1.00  0.00     0.098 C
ATOM     41  C   UNL     1      28.888  20.565  -7.256  1.00  0.00     0.158 C
ATOM     42  C   UNL     1      26.939  18.801  -6.238  1.00  0.00     0.162 C
ATOM     43  S   UNL     1      27.242  19.967  -7.545  1.00  0.00     0.154 S
ATOM     44  O   UNL     1      26.337  21.084  -7.341  1.00  0.00    -0.229 OA
ATOM     45  O   UNL     1      27.244  19.256  -8.810  1.00  0.00    -0.229 OA
BRANCH  40  46
ATOM     46  C   UNL     1      28.677  17.019  -6.856  1.00  0.00     0.026 C
BRANCH  46  47
ATOM     47  C   UNL     1      28.064  15.629  -6.609  1.00  0.00     0.002 C
ATOM     48  G   UNL     1      27.249  15.077  -7.798  1.00  0.00     0.000 C
ENDBRANCH  46  47
ENDBRANCH  40  46
ENDBRANCH  37  38
ENDBRANCH  10  32
TORSDOF 2
ENDMDL
