MODEL 1
REMARK VINA RESULT:      -8.3      0.000      0.000
REMARK SMILES CC(C)(C)[C@H]1NC(=O)c2c[nH]c3ncc(nc23)[C@]2(CCCOCC[C@@]3(C#N)CN(C3)C1=O)CC2
REMARK SMILES IDX 9 1 10 2 11 3 12 4 13 5 14 6 15 7 16 8 17 9 7 11 6 12 8 13
REMARK SMILES IDX 5 15 2 16 1 17 3 18 4 19 31 20 32 21 29 22 28 23 30 24 25 25
REMARK SMILES IDX 26 26 27 27 24 28 18 30 33 31 34 32 19 33 20 34 21 35 22 36
REMARK SMILES IDX 23 37
REMARK H PARENT 11 10 6 14
REMARK Flexibility Score:  115.900
ROOT
ATOM      1  C   UNL     1      29.255  11.697  -4.514  1.00  0.00     0.085 A
ATOM      2  C   UNL     1      28.226  10.977  -5.113  1.00  0.00     0.100 A
ATOM      3  N   UNL     1      28.580   9.653  -5.155  1.00  0.00    -0.344 N
ATOM      4  C   UNL     1      29.815   9.495  -4.595  1.00  0.00     0.156 A
ATOM      5  N   UNL     1      30.470   8.328  -4.457  1.00  0.00    -0.235 NA
ATOM      6  C   UNL     1      31.667   8.523  -3.848  1.00  0.00     0.138 A
ATOM      7  C   UNL     1      32.178   9.757  -3.420  1.00  0.00     0.066 A
ATOM      8  N   UNL     1      31.474  10.913  -3.586  1.00  0.00    -0.246 NA
ATOM      9  C   UNL     1      30.264  10.747  -4.191  1.00  0.00     0.120 A
ATOM     10  H   UNL     1      28.025   8.894  -5.527  1.00  0.00     0.168 HD
ENDROOT
BRANCH   1  11
ATOM     11  C   UNL     1      29.226  13.133  -4.282  1.00  0.00     0.255 C
ATOM     12  N   UNL     1      29.336  13.908  -5.415  1.00  0.00    -0.340 N
ATOM     13  O   UNL     1      29.127  13.610  -3.157  1.00  0.00    -0.269 OA
ATOM     14  H   UNL     1      29.420  13.435  -6.310  1.00  0.00     0.164 HD
BRANCH  12  15
ATOM     15  C   UNL     1      29.348  15.369  -5.340  1.00  0.00     0.177 C
BRANCH  15  16
ATOM     16  C   UNL     1      28.091  16.009  -6.019  1.00  0.00    -0.009 C
ATOM     17  C   UNL     1      28.385  16.329  -7.500  1.00  0.00     0.013 C
ATOM     18  C   UNL     1      27.752  17.346  -5.319  1.00  0.00     0.013 C
ATOM     19  C   UNL     1      26.849  15.107  -5.960  1.00  0.00     0.013 C
ENDBRANCH  15  16
BRANCH  15  20
ATOM     20  C   UNL     1      30.704  15.984  -5.799  1.00  0.00     0.245 C
ATOM     21  O   UNL     1      31.612  15.256  -6.214  1.00  0.00    -0.272 OA
BRANCH  20  22
ATOM     22  N   UNL     1      30.940  17.318  -5.618  1.00  0.00    -0.338 N
ATOM     23  C   UNL     1      30.878  18.507  -6.431  1.00  0.00     0.143 C
ATOM     24  C   UNL     1      31.262  18.018  -4.384  1.00  0.00     0.143 C
ATOM     25  C   UNL     1      31.503  19.283  -5.245  1.00  0.00     0.095 C
ATOM     26  C   UNL     1      32.915  19.587  -5.439  1.00  0.00     0.073 C
ATOM     27  N   UNL     1      34.027  19.875  -5.601  1.00  0.00    -0.198 NA
BRANCH  25  28
ATOM     28  C   UNL     1      30.738  20.525  -4.750  1.00  0.00     0.054 C
ATOM     29  G   UNL     1      31.674  21.549  -4.103  1.00  0.00     0.000 C
ENDBRANCH  25  28
ENDBRANCH  20  22
ENDBRANCH  15  20
ENDBRANCH  12  15
ENDBRANCH   1  11
BRANCH   7  30
ATOM     30  C   UNL     1      33.531   9.840  -2.716  1.00  0.00     0.014 C
ATOM     31  C   UNL     1      33.610   9.452  -1.246  1.00  0.00     0.014 C
ATOM     32  C   UNL     1      34.184   8.535  -2.284  1.00  0.00     0.014 C
BRANCH  30  33
ATOM     33  C   UNL     1      34.453  10.950  -3.206  1.00  0.00     0.016 C
BRANCH  33  34
ATOM     34  C   UNL     1      34.501  12.108  -2.212  1.00  0.00     0.029 C
BRANCH  34  35
ATOM     35  C   UNL     1      34.044  13.436  -2.799  1.00  0.00     0.160 C
BRANCH  35  36
ATOM     36  O   UNL     1      32.722  13.693  -2.324  1.00  0.00    -0.381 OA
BRANCH  36  37
ATOM     37  C   UNL     1      32.280  15.033  -2.538  1.00  0.00     0.162 C
ATOM     38  G   UNL     1      31.312  15.389  -1.407  1.00  0.00     0.000 C
ENDBRANCH  36  37
ENDBRANCH  35  36
ENDBRANCH  34  35
ENDBRANCH  33  34
ENDBRANCH  30  33
ENDBRANCH   7  30
TORSDOF 1
ENDMDL
MODEL 2
REMARK VINA RESULT:      -8.2      2.115      4.431
REMARK SMILES CC(C)(C)[C@H]1NC(=O)c2c[nH]c3ncc(nc23)[C@]2(CCCOCC[C@@]3(C#N)CN(C3)C1=O)CC2
REMARK SMILES IDX 9 1 10 2 11 3 12 4 13 5 14 6 15 7 16 8 17 9 7 11 6 12 8 13
REMARK SMILES IDX 5 15 2 16 1 17 3 18 4 19 31 20 32 21 29 22 28 23 30 24 25 25
REMARK SMILES IDX 26 26 27 27 24 28 18 30 33 31 34 32 19 33 20 34 21 35 22 36
REMARK SMILES IDX 23 37
REMARK H PARENT 11 10 6 14
REMARK Flexibility Score:  115.900
ROOT
ATOM      1  C   UNL     1      32.662  14.692  -2.833  1.00  0.00     0.085 A
ATOM      2  C   UNL     1      33.767  15.537  -2.822  1.00  0.00     0.100 A
ATOM      3  N   UNL     1      34.905  14.775  -2.755  1.00  0.00    -0.344 N
ATOM      4  C   UNL     1      34.565  13.454  -2.722  1.00  0.00     0.156 A
ATOM      5  N   UNL     1      35.429  12.423  -2.668  1.00  0.00    -0.235 NA
ATOM      6  C   UNL     1      34.761  11.241  -2.662  1.00  0.00     0.138 A
ATOM      7  C   UNL     1      33.368  11.087  -2.701  1.00  0.00     0.066 A
ATOM      8  N   UNL     1      32.535  12.166  -2.753  1.00  0.00    -0.246 NA
ATOM      9  C   UNL     1      33.179  13.367  -2.765  1.00  0.00     0.120 A
ATOM     10  H   UNL     1      35.856  15.117  -2.740  1.00  0.00     0.168 HD
ENDROOT
BRANCH   1  11
ATOM     11  C   UNL     1      31.282  15.144  -2.915  1.00  0.00     0.255 C
ATOM     12  N   UNL     1      30.807  15.338  -4.193  1.00  0.00    -0.340 N
ATOM     13  O   UNL     1      30.603  15.349  -1.916  1.00  0.00    -0.269 OA
ATOM     14  H   UNL     1      31.436  15.149  -4.969  1.00  0.00     0.164 HD
BRANCH  12  15
ATOM     15  C   UNL     1      29.446  15.814  -4.437  1.00  0.00     0.177 C
BRANCH  15  16
ATOM     16  C   UNL     1      28.699  14.958  -5.513  1.00  0.00    -0.009 C
ATOM     17  C   UNL     1      27.227  14.742  -5.101  1.00  0.00     0.013 C
ATOM     18  C   UNL     1      29.358  13.562  -5.610  1.00  0.00     0.013 C
ATOM     19  C   UNL     1      28.718  15.597  -6.911  1.00  0.00     0.013 C
ENDBRANCH  15  16
BRANCH  15  20
ATOM     20  C   UNL     1      29.382  17.350  -4.687  1.00  0.00     0.245 C
ATOM     21  O   UNL     1      28.292  17.930  -4.742  1.00  0.00    -0.272 OA
BRANCH  20  22
ATOM     22  N   UNL     1      30.526  18.039  -4.981  1.00  0.00    -0.338 N
ATOM     23  C   UNL     1      31.549  18.726  -4.233  1.00  0.00     0.143 C
ATOM     24  C   UNL     1      31.168  18.211  -6.274  1.00  0.00     0.143 C
ATOM     25  C   UNL     1      32.137  19.204  -5.584  1.00  0.00     0.095 C
ATOM     26  C   UNL     1      31.837  20.599  -5.878  1.00  0.00     0.073 C
ATOM     27  N   UNL     1      31.644  21.721  -6.102  1.00  0.00    -0.198 NA
BRANCH  25  28
ATOM     28  C   UNL     1      33.625  18.897  -5.839  1.00  0.00     0.054 C
ATOM     29  G   UNL     1      34.261  19.918  -6.787  1.00  0.00     0.000 C
ENDBRANCH  25  28
ENDBRANCH  20  22
ENDBRANCH  15  20
ENDBRANCH  12  15
ENDBRANCH   1  11
BRANCH   7  30
ATOM     30  C   UNL     1      32.736   9.697  -2.723  1.00  0.00     0.014 C
ATOM     31  C   UNL     1      33.637   8.487  -2.518  1.00  0.00     0.014 C
ATOM     32  C   UNL     1      32.710   8.912  -1.419  1.00  0.00     0.014 C
BRANCH  30  33
ATOM     33  C   UNL     1      31.540   9.539  -3.654  1.00  0.00     0.016 C
BRANCH  33  34
ATOM     34  C   UNL     1      31.283   8.071  -3.982  1.00  0.00     0.029 C
BRANCH  34  35
ATOM     35  C   UNL     1      30.159   7.856  -4.986  1.00  0.00     0.160 C
BRANCH  35  36
ATOM     36  O   UNL     1      29.416   9.073  -5.077  1.00  0.00    -0.381 OA
BRANCH  36  37
ATOM     37  C   UNL     1      28.574   9.152  -6.227  1.00  0.00     0.162 C
ATOM     38  G   UNL     1      28.973   8.016  -7.173  1.00  0.00     0.000 C
ENDBRANCH  36  37
ENDBRANCH  35  36
ENDBRANCH  34  35
ENDBRANCH  33  34
ENDBRANCH  30  33
ENDBRANCH   7  30
TORSDOF 1
ENDMDL
MODEL 3
REMARK VINA RESULT:      -8.1      0.981      1.486
REMARK SMILES CC(C)(C)[C@H]1NC(=O)c2c[nH]c3ncc(nc23)[C@]2(CCCOCC[C@@]3(C#N)CN(C3)C1=O)CC2
REMARK SMILES IDX 9 1 10 2 11 3 12 4 13 5 14 6 15 7 16 8 17 9 7 11 6 12 8 13
REMARK SMILES IDX 5 15 2 16 1 17 3 18 4 19 31 20 32 21 29 22 28 23 30 24 25 25
REMARK SMILES IDX 26 26 27 27 24 28 18 30 33 31 34 32 19 33 20 34 21 35 22 36
REMARK SMILES IDX 23 37
REMARK H PARENT 11 10 6 14
REMARK Flexibility Score:  115.900
ROOT
ATOM      1  C   UNL     1      29.241  12.065  -4.603  1.00  0.00     0.085 A
ATOM      2  C   UNL     1      28.166  11.474  -5.259  1.00  0.00     0.100 A
ATOM      3  N   UNL     1      28.395  10.125  -5.355  1.00  0.00    -0.344 N
ATOM      4  C   UNL     1      29.593   9.826  -4.775  1.00  0.00     0.156 A
ATOM      5  N   UNL     1      30.132   8.596  -4.676  1.00  0.00    -0.235 NA
ATOM      6  C   UNL     1      31.325   8.649  -4.031  1.00  0.00     0.138 A
ATOM      7  C   UNL     1      31.937   9.809  -3.532  1.00  0.00     0.066 A
ATOM      8  N   UNL     1      31.350  11.033  -3.661  1.00  0.00    -0.246 NA
ATOM      9  C   UNL     1      30.147  11.010  -4.302  1.00  0.00     0.120 A
ATOM     10  H   UNL     1      27.782   9.440  -5.776  1.00  0.00     0.168 HD
ENDROOT
BRANCH   1  11
ATOM     11  C   UNL     1      29.341  13.486  -4.304  1.00  0.00     0.255 C
ATOM     12  N   UNL     1      29.379  14.311  -5.406  1.00  0.00    -0.340 N
ATOM     13  O   UNL     1      29.402  13.908  -3.155  1.00  0.00    -0.269 OA
ATOM     14  H   UNL     1      29.328  13.881  -6.325  1.00  0.00     0.164 HD
BRANCH  12  15
ATOM     15  C   UNL     1      29.503  15.762  -5.267  1.00  0.00     0.177 C
BRANCH  15  16
ATOM     16  C   UNL     1      28.270  16.524  -5.859  1.00  0.00    -0.009 C
ATOM     17  C   UNL     1      27.012  15.631  -5.810  1.00  0.00     0.013 C
ATOM     18  C   UNL     1      28.537  16.860  -7.345  1.00  0.00     0.013 C
ATOM     19  C   UNL     1      27.960  17.834  -5.118  1.00  0.00     0.013 C
ENDBRANCH  15  16
BRANCH  15  20
ATOM     20  C   UNL     1      30.880  16.298  -5.759  1.00  0.00     0.245 C
ATOM     21  O   UNL     1      31.715  15.526  -6.242  1.00  0.00    -0.272 OA
BRANCH  20  22
ATOM     22  N   UNL     1      31.221  17.603  -5.534  1.00  0.00    -0.338 N
ATOM     23  C   UNL     1      31.307  18.474  -4.389  1.00  0.00     0.143 C
ATOM     24  C   UNL     1      31.751  18.572  -6.480  1.00  0.00     0.143 C
ATOM     25  C   UNL     1      31.592  19.640  -5.369  1.00  0.00     0.095 C
ATOM     26  C   UNL     1      30.443  20.514  -5.571  1.00  0.00     0.073 C
ATOM     27  N   UNL     1      29.550  21.243  -5.704  1.00  0.00    -0.198 NA
BRANCH  25  28
ATOM     28  C   UNL     1      32.868  20.464  -5.113  1.00  0.00     0.054 C
ATOM     29  G   UNL     1      32.823  21.819  -5.824  1.00  0.00     0.000 C
ENDBRANCH  25  28
ENDBRANCH  20  22
ENDBRANCH  15  20
ENDBRANCH  12  15
ENDBRANCH   1  11
BRANCH   7  30
ATOM     30  C   UNL     1      33.272   9.731  -2.793  1.00  0.00     0.014 C
ATOM     31  C   UNL     1      33.269   9.305  -1.333  1.00  0.00     0.014 C
ATOM     32  C   UNL     1      33.770   8.355  -2.378  1.00  0.00     0.014 C
BRANCH  30  33
ATOM     33  C   UNL     1      34.319  10.747  -3.234  1.00  0.00     0.016 C
BRANCH  33  34
ATOM     34  C   UNL     1      34.793  11.598  -2.058  1.00  0.00     0.029 C
BRANCH  34  35
ATOM     35  C   UNL     1      35.110  13.038  -2.435  1.00  0.00     0.160 C
BRANCH  35  36
ATOM     36  O   UNL     1      34.004  13.548  -3.182  1.00  0.00    -0.381 OA
BRANCH  36  37
ATOM     37  C   UNL     1      32.901  13.961  -2.375  1.00  0.00     0.162 C
ATOM     38  G   UNL     1      32.524  15.383  -2.797  1.00  0.00     0.000 C
ENDBRANCH  36  37
ENDBRANCH  35  36
ENDBRANCH  34  35
ENDBRANCH  33  34
ENDBRANCH  30  33
ENDBRANCH   7  30
TORSDOF 1
ENDMDL
MODEL 4
REMARK VINA RESULT:      -8.0      1.845      4.468
REMARK SMILES CC(C)(C)[C@H]1NC(=O)c2c[nH]c3ncc(nc23)[C@]2(CCCOCC[C@@]3(C#N)CN(C3)C1=O)CC2
REMARK SMILES IDX 9 1 10 2 11 3 12 4 13 5 14 6 15 7 16 8 17 9 7 11 6 12 8 13
REMARK SMILES IDX 5 15 2 16 1 17 3 18 4 19 31 20 32 21 29 22 28 23 30 24 25 25
REMARK SMILES IDX 26 26 27 27 24 28 18 30 33 31 34 32 19 33 20 34 21 35 22 36
REMARK SMILES IDX 23 37
REMARK H PARENT 11 10 6 14
REMARK Flexibility Score:  115.900
ROOT
ATOM      1  C   UNL     1      33.903  13.222  -2.877  1.00  0.00     0.085 A
ATOM      2  C   UNL     1      35.208  13.184  -2.398  1.00  0.00     0.100 A
ATOM      3  N   UNL     1      35.559  11.876  -2.178  1.00  0.00    -0.344 N
ATOM      4  C   UNL     1      34.511  11.064  -2.504  1.00  0.00     0.156 A
ATOM      5  N   UNL     1      34.506   9.721  -2.424  1.00  0.00    -0.235 NA
ATOM      6  C   UNL     1      33.312   9.224  -2.835  1.00  0.00     0.138 A
ATOM      7  C   UNL     1      32.218   9.981  -3.281  1.00  0.00     0.066 A
ATOM      8  N   UNL     1      32.274  11.343  -3.340  1.00  0.00    -0.246 NA
ATOM      9  C   UNL     1      33.465  11.870  -2.936  1.00  0.00     0.120 A
ATOM     10  H   UNL     1      36.451  11.542  -1.838  1.00  0.00     0.168 HD
ENDROOT
BRANCH   1  11
ATOM     11  C   UNL     1      33.196  14.442  -3.238  1.00  0.00     0.255 C
ATOM     12  N   UNL     1      32.029  14.251  -3.944  1.00  0.00    -0.340 N
ATOM     13  O   UNL     1      33.621  15.553  -2.944  1.00  0.00    -0.269 OA
ATOM     14  H   UNL     1      31.747  13.297  -4.151  1.00  0.00     0.164 HD
BRANCH  12  15
ATOM     15  C   UNL     1      31.220  15.382  -4.398  1.00  0.00     0.177 C
BRANCH  15  16
ATOM     16  C   UNL     1      29.740  14.972  -4.702  1.00  0.00    -0.009 C
ATOM     17  C   UNL     1      28.810  16.199  -4.599  1.00  0.00     0.013 C
ATOM     18  C   UNL     1      29.264  13.944  -3.649  1.00  0.00     0.013 C
ATOM     19  C   UNL     1      29.563  14.350  -6.096  1.00  0.00     0.013 C
ENDBRANCH  15  16
BRANCH  15  20
ATOM     20  C   UNL     1      31.905  16.191  -5.539  1.00  0.00     0.245 C
ATOM     21  O   UNL     1      32.602  15.617  -6.382  1.00  0.00    -0.272 OA
BRANCH  20  22
ATOM     22  N   UNL     1      31.845  17.557  -5.534  1.00  0.00    -0.338 N
ATOM     23  C   UNL     1      31.711  18.598  -6.522  1.00  0.00     0.143 C
ATOM     24  C   UNL     1      31.792  18.453  -4.390  1.00  0.00     0.143 C
ATOM     25  C   UNL     1      31.945  19.628  -5.388  1.00  0.00     0.095 C
ATOM     26  C   UNL     1      33.283  20.202  -5.401  1.00  0.00     0.073 C
ATOM     27  N   UNL     1      34.331  20.700  -5.429  1.00  0.00    -0.198 NA
BRANCH  25  28
ATOM     28  C   UNL     1      30.878  20.726  -5.221  1.00  0.00     0.054 C
ATOM     29  G   UNL     1      31.422  21.934  -4.453  1.00  0.00     0.000 C
ENDBRANCH  25  28
ENDBRANCH  20  22
ENDBRANCH  15  20
ENDBRANCH  12  15
ENDBRANCH   1  11
BRANCH   7  30
ATOM     30  C   UNL     1      30.935   9.298  -3.750  1.00  0.00     0.014 C
ATOM     31  C   UNL     1      31.044   8.148  -4.740  1.00  0.00     0.014 C
ATOM     32  C   UNL     1      30.698   7.861  -3.310  1.00  0.00     0.014 C
BRANCH  30  33
ATOM     33  C   UNL     1      29.714  10.205  -3.849  1.00  0.00     0.016 C
BRANCH  33  34
ATOM     34  C   UNL     1      29.389  10.538  -5.303  1.00  0.00     0.029 C
BRANCH  34  35
ATOM     35  C   UNL     1      27.909  10.420  -5.641  1.00  0.00     0.160 C
BRANCH  35  36
ATOM     36  O   UNL     1      27.373   9.332  -4.886  1.00  0.00    -0.381 OA
BRANCH  36  37
ATOM     37  C   UNL     1      27.235   8.123  -5.633  1.00  0.00     0.162 C
ATOM     38  G   UNL     1      26.587   8.478  -6.974  1.00  0.00     0.000 C
ENDBRANCH  36  37
ENDBRANCH  35  36
ENDBRANCH  34  35
ENDBRANCH  33  34
ENDBRANCH  30  33
ENDBRANCH   7  30
TORSDOF 1
ENDMDL
MODEL 5
REMARK VINA RESULT:      -8.0      2.421      4.966
REMARK SMILES CC(C)(C)[C@H]1NC(=O)c2c[nH]c3ncc(nc23)[C@]2(CCCOCC[C@@]3(C#N)CN(C3)C1=O)CC2
REMARK SMILES IDX 9 1 10 2 11 3 12 4 13 5 14 6 15 7 16 8 17 9 7 11 6 12 8 13
REMARK SMILES IDX 5 15 2 16 1 17 3 18 4 19 31 20 32 21 29 22 28 23 30 24 25 25
REMARK SMILES IDX 26 26 27 27 24 28 18 30 33 31 34 32 19 33 20 34 21 35 22 36
REMARK SMILES IDX 23 37
REMARK H PARENT 11 10 6 14
REMARK Flexibility Score:  115.900
ROOT
ATOM      1  C   UNL     1      33.821  12.957  -2.821  1.00  0.00     0.085 A
ATOM      2  C   UNL     1      35.082  12.903  -2.236  1.00  0.00     0.100 A
ATOM      3  N   UNL     1      35.426  11.589  -2.049  1.00  0.00    -0.344 N
ATOM      4  C   UNL     1      34.417  10.787  -2.501  1.00  0.00     0.156 A
ATOM      5  N   UNL     1      34.418   9.441  -2.486  1.00  0.00    -0.235 NA
ATOM      6  C   UNL     1      33.268   8.958  -3.021  1.00  0.00     0.138 A
ATOM      7  C   UNL     1      32.209   9.730  -3.521  1.00  0.00     0.066 A
ATOM      8  N   UNL     1      32.256  11.093  -3.510  1.00  0.00    -0.246 NA
ATOM      9  C   UNL     1      33.403  11.606  -2.982  1.00  0.00     0.120 A
ATOM     10  H   UNL     1      36.289  11.244  -1.652  1.00  0.00     0.168 HD
ENDROOT
BRANCH   1  11
ATOM     11  C   UNL     1      33.135  14.188  -3.182  1.00  0.00     0.255 C
ATOM     12  N   UNL     1      31.981  14.019  -3.915  1.00  0.00    -0.340 N
ATOM     13  O   UNL     1      33.566  15.291  -2.866  1.00  0.00    -0.269 OA
ATOM     14  H   UNL     1      31.694  13.071  -4.139  1.00  0.00     0.164 HD
BRANCH  12  15
ATOM     15  C   UNL     1      31.194  15.164  -4.372  1.00  0.00     0.177 C
BRANCH  15  16
ATOM     16  C   UNL     1      29.710  14.780  -4.685  1.00  0.00    -0.009 C
ATOM     17  C   UNL     1      28.787  16.003  -4.498  1.00  0.00     0.013 C
ATOM     18  C   UNL     1      29.239  13.692  -3.692  1.00  0.00     0.013 C
ATOM     19  C   UNL     1      29.514  14.245  -6.112  1.00  0.00     0.013 C
ENDBRANCH  15  16
BRANCH  15  20
ATOM     20  C   UNL     1      31.899  15.963  -5.509  1.00  0.00     0.245 C
ATOM     21  O   UNL     1      32.633  15.384  -6.318  1.00  0.00    -0.272 OA
BRANCH  20  22
ATOM     22  N   UNL     1      31.814  17.327  -5.534  1.00  0.00    -0.338 N
ATOM     23  C   UNL     1      31.621  18.340  -6.541  1.00  0.00     0.143 C
ATOM     24  C   UNL     1      31.791  18.250  -4.411  1.00  0.00     0.143 C
ATOM     25  C   UNL     1      31.882  19.402  -5.443  1.00  0.00     0.095 C
ATOM     26  C   UNL     1      33.208  19.999  -5.525  1.00  0.00     0.073 C
ATOM     27  N   UNL     1      34.244  20.514  -5.608  1.00  0.00    -0.198 NA
BRANCH  25  28
ATOM     28  C   UNL     1      30.803  20.486  -5.258  1.00  0.00     0.054 C
ATOM     29  G   UNL     1      31.357  21.723  -4.547  1.00  0.00     0.000 C
ENDBRANCH  25  28
ENDBRANCH  20  22
ENDBRANCH  15  20
ENDBRANCH  12  15
ENDBRANCH   1  11
BRANCH   7  30
ATOM     30  C   UNL     1      30.976   9.063  -4.129  1.00  0.00     0.014 C
ATOM     31  C   UNL     1      29.651   9.808  -4.084  1.00  0.00     0.014 C
ATOM     32  C   UNL     1      30.384   9.684  -5.385  1.00  0.00     0.014 C
BRANCH  30  33
ATOM     33  C   UNL     1      30.938   7.543  -4.020  1.00  0.00     0.016 C
BRANCH  33  34
ATOM     34  C   UNL     1      30.154   6.925  -5.174  1.00  0.00     0.029 C
BRANCH  34  35
ATOM     35  C   UNL     1      29.361   5.686  -4.781  1.00  0.00     0.160 C
BRANCH  35  36
ATOM     36  O   UNL     1      28.017   5.867  -5.229  1.00  0.00    -0.381 OA
BRANCH  36  37
ATOM     37  C   UNL     1      27.071   5.021  -4.575  1.00  0.00     0.162 C
ATOM     38  G   UNL     1      25.773   5.816  -4.412  1.00  0.00     0.000 C
ENDBRANCH  36  37
ENDBRANCH  35  36
ENDBRANCH  34  35
ENDBRANCH  33  34
ENDBRANCH  30  33
ENDBRANCH   7  30
TORSDOF 1
ENDMDL
MODEL 6
REMARK VINA RESULT:      -8.0      2.166      4.311
REMARK SMILES CC(C)(C)[C@H]1NC(=O)c2c[nH]c3ncc(nc23)[C@]2(CCCOCC[C@@]3(C#N)CN(C3)C1=O)CC2
REMARK SMILES IDX 9 1 10 2 11 3 12 4 13 5 14 6 15 7 16 8 17 9 7 11 6 12 8 13
REMARK SMILES IDX 5 15 2 16 1 17 3 18 4 19 31 20 32 21 29 22 28 23 30 24 25 25
REMARK SMILES IDX 26 26 27 27 24 28 18 30 33 31 34 32 19 33 20 34 21 35 22 36
REMARK SMILES IDX 23 37
REMARK H PARENT 11 10 6 14
REMARK Flexibility Score:  115.900
ROOT
ATOM      1  C   UNL     1      32.471  14.725  -3.032  1.00  0.00     0.085 A
ATOM      2  C   UNL     1      33.467  15.695  -3.070  1.00  0.00     0.100 A
ATOM      3  N   UNL     1      34.684  15.085  -2.897  1.00  0.00    -0.344 N
ATOM      4  C   UNL     1      34.501  13.741  -2.749  1.00  0.00     0.156 A
ATOM      5  N   UNL     1      35.477  12.831  -2.572  1.00  0.00    -0.235 NA
ATOM      6  C   UNL     1      34.952  11.583  -2.474  1.00  0.00     0.138 A
ATOM      7  C   UNL     1      33.589  11.259  -2.538  1.00  0.00     0.066 A
ATOM      8  N   UNL     1      32.638  12.220  -2.717  1.00  0.00    -0.246 NA
ATOM      9  C   UNL     1      33.137  13.484  -2.823  1.00  0.00     0.120 A
ATOM     10  H   UNL     1      35.587  15.539  -2.887  1.00  0.00     0.168 HD
ENDROOT
BRANCH   1  11
ATOM     11  C   UNL     1      31.052  14.998  -3.197  1.00  0.00     0.255 C
ATOM     12  N   UNL     1      30.727  15.741  -4.310  1.00  0.00    -0.340 N
ATOM     13  O   UNL     1      30.215  14.605  -2.393  1.00  0.00    -0.269 OA
ATOM     14  H   UNL     1      31.481  16.032  -4.926  1.00  0.00     0.164 HD
BRANCH  12  15
ATOM     15  C   UNL     1      29.343  16.116  -4.598  1.00  0.00     0.177 C
BRANCH  15  16
ATOM     16  C   UNL     1      28.748  15.317  -5.806  1.00  0.00    -0.009 C
ATOM     17  C   UNL     1      27.275  14.947  -5.532  1.00  0.00     0.013 C
ATOM     18  C   UNL     1      29.529  13.994  -5.983  1.00  0.00     0.013 C
ATOM     19  C   UNL     1      28.811  16.094  -7.131  1.00  0.00     0.013 C
ENDBRANCH  15  16
BRANCH  15  20
ATOM     20  C   UNL     1      29.145  17.659  -4.695  1.00  0.00     0.245 C
ATOM     21  O   UNL     1      28.042  18.164  -4.461  1.00  0.00    -0.272 OA
BRANCH  20  22
ATOM     22  N   UNL     1      30.158  18.444  -5.170  1.00  0.00    -0.338 N
ATOM     23  C   UNL     1      30.379  19.273  -6.329  1.00  0.00     0.143 C
ATOM     24  C   UNL     1      31.412  18.789  -4.520  1.00  0.00     0.143 C
ATOM     25  C   UNL     1      31.841  19.455  -5.851  1.00  0.00     0.095 C
ATOM     26  C   UNL     1      32.796  18.659  -6.611  1.00  0.00     0.073 C
ATOM     27  N   UNL     1      33.571  18.066  -7.239  1.00  0.00    -0.198 NA
BRANCH  25  28
ATOM     28  C   UNL     1      32.341  20.903  -5.688  1.00  0.00     0.054 C
ATOM     29  G   UNL     1      33.858  21.004  -5.863  1.00  0.00     0.000 C
ENDBRANCH  25  28
ENDBRANCH  20  22
ENDBRANCH  15  20
ENDBRANCH  12  15
ENDBRANCH   1  11
BRANCH   7  30
ATOM     30  C   UNL     1      33.127   9.806  -2.446  1.00  0.00     0.014 C
ATOM     31  C   UNL     1      34.107   8.706  -2.826  1.00  0.00     0.014 C
ATOM     32  C   UNL     1      33.768   8.927  -1.383  1.00  0.00     0.014 C
BRANCH  30  33
ATOM     33  C   UNL     1      31.650   9.573  -2.744  1.00  0.00     0.016 C
BRANCH  33  34
ATOM     34  C   UNL     1      31.449   9.045  -4.163  1.00  0.00     0.029 C
BRANCH  34  35
ATOM     35  C   UNL     1      30.942   7.611  -4.215  1.00  0.00     0.160 C
BRANCH  35  36
ATOM     36  O   UNL     1      29.893   7.553  -5.183  1.00  0.00    -0.381 OA
BRANCH  36  37
ATOM     37  C   UNL     1      29.589   8.812  -5.783  1.00  0.00     0.162 C
ATOM     38  G   UNL     1      28.859   8.535  -7.099  1.00  0.00     0.000 C
ENDBRANCH  36  37
ENDBRANCH  35  36
ENDBRANCH  34  35
ENDBRANCH  33  34
ENDBRANCH  30  33
ENDBRANCH   7  30
TORSDOF 1
ENDMDL
MODEL 7
REMARK VINA RESULT:      -8.0      0.939      1.283
REMARK SMILES CC(C)(C)[C@H]1NC(=O)c2c[nH]c3ncc(nc23)[C@]2(CCCOCC[C@@]3(C#N)CN(C3)C1=O)CC2
REMARK SMILES IDX 9 1 10 2 11 3 12 4 13 5 14 6 15 7 16 8 17 9 7 11 6 12 8 13
REMARK SMILES IDX 5 15 2 16 1 17 3 18 4 19 31 20 32 21 29 22 28 23 30 24 25 25
REMARK SMILES IDX 26 26 27 27 24 28 18 30 33 31 34 32 19 33 20 34 21 35 22 36
REMARK SMILES IDX 23 37
REMARK H PARENT 11 10 6 14
REMARK Flexibility Score:  115.900
ROOT
ATOM      1  C   UNL     1      29.213  11.662  -4.583  1.00  0.00     0.085 A
ATOM      2  C   UNL     1      28.178  10.928  -5.151  1.00  0.00     0.100 A
ATOM      3  N   UNL     1      28.525   9.601  -5.150  1.00  0.00    -0.344 N
ATOM      4  C   UNL     1      29.762   9.457  -4.593  1.00  0.00     0.156 A
ATOM      5  N   UNL     1      30.412   8.291  -4.418  1.00  0.00    -0.235 NA
ATOM      6  C   UNL     1      31.615   8.501  -3.823  1.00  0.00     0.138 A
ATOM      7  C   UNL     1      32.133   9.746  -3.440  1.00  0.00     0.066 A
ATOM      8  N   UNL     1      31.434  10.900  -3.642  1.00  0.00    -0.246 NA
ATOM      9  C   UNL     1      30.220  10.719  -4.234  1.00  0.00     0.120 A
ATOM     10  H   UNL     1      27.964   8.833  -5.493  1.00  0.00     0.168 HD
ENDROOT
BRANCH   1  11
ATOM     11  C   UNL     1      29.194  13.106  -4.400  1.00  0.00     0.255 C
ATOM     12  N   UNL     1      29.095  13.839  -5.561  1.00  0.00    -0.340 N
ATOM     13  O   UNL     1      29.274  13.623  -3.292  1.00  0.00    -0.269 OA
ATOM     14  H   UNL     1      29.036  13.333  -6.441  1.00  0.00     0.164 HD
BRANCH  12  15
ATOM     15  C   UNL     1      29.087  15.301  -5.541  1.00  0.00     0.177 C
BRANCH  15  16
ATOM     16  C   UNL     1      27.905  15.902  -6.374  1.00  0.00    -0.009 C
ATOM     17  C   UNL     1      28.412  16.397  -7.745  1.00  0.00     0.013 C
ATOM     18  C   UNL     1      27.321  17.126  -5.631  1.00  0.00     0.013 C
ATOM     19  C   UNL     1      26.767  14.898  -6.616  1.00  0.00     0.013 C
ENDBRANCH  15  16
BRANCH  15  20
ATOM     20  C   UNL     1      30.479  15.915  -5.875  1.00  0.00     0.245 C
ATOM     21  O   UNL     1      31.406  15.192  -6.255  1.00  0.00    -0.272 OA
BRANCH  20  22
ATOM     22  N   UNL     1      30.717  17.237  -5.621  1.00  0.00    -0.338 N
ATOM     23  C   UNL     1      30.548  18.129  -4.501  1.00  0.00     0.143 C
ATOM     24  C   UNL     1      31.377  18.214  -6.472  1.00  0.00     0.143 C
ATOM     25  C   UNL     1      30.966  19.292  -5.437  1.00  0.00     0.095 C
ATOM     26  C   UNL     1      29.842  20.110  -5.873  1.00  0.00     0.073 C
ATOM     27  N   UNL     1      28.962  20.796  -6.190  1.00  0.00    -0.198 NA
BRANCH  25  28
ATOM     28  C   UNL     1      32.136  20.175  -4.963  1.00  0.00     0.054 C
ATOM     29  G   UNL     1      32.273  21.441  -5.813  1.00  0.00     0.000 C
ENDBRANCH  25  28
ENDBRANCH  20  22
ENDBRANCH  15  20
ENDBRANCH  12  15
ENDBRANCH   1  11
BRANCH   7  30
ATOM     30  C   UNL     1      33.491   9.846  -2.747  1.00  0.00     0.014 C
ATOM     31  C   UNL     1      33.589   9.452  -1.280  1.00  0.00     0.014 C
ATOM     32  C   UNL     1      34.168   8.549  -2.328  1.00  0.00     0.014 C
BRANCH  30  33
ATOM     33  C   UNL     1      34.392  10.973  -3.239  1.00  0.00     0.016 C
BRANCH  33  34
ATOM     34  C   UNL     1      34.570  12.046  -2.168  1.00  0.00     0.029 C
BRANCH  34  35
ATOM     35  C   UNL     1      33.537  13.161  -2.241  1.00  0.00     0.160 C
BRANCH  35  36
ATOM     36  O   UNL     1      33.734  13.860  -3.471  1.00  0.00    -0.381 OA
BRANCH  36  37
ATOM     37  C   UNL     1      33.346  15.233  -3.426  1.00  0.00     0.162 C
ATOM     38  G   UNL     1      32.124  15.339  -2.509  1.00  0.00     0.000 C
ENDBRANCH  36  37
ENDBRANCH  35  36
ENDBRANCH  34  35
ENDBRANCH  33  34
ENDBRANCH  30  33
ENDBRANCH   7  30
TORSDOF 1
ENDMDL
MODEL 8
REMARK VINA RESULT:      -8.0      2.417      4.649
REMARK SMILES CC(C)(C)[C@H]1NC(=O)c2c[nH]c3ncc(nc23)[C@]2(CCCOCC[C@@]3(C#N)CN(C3)C1=O)CC2
REMARK SMILES IDX 9 1 10 2 11 3 12 4 13 5 14 6 15 7 16 8 17 9 7 11 6 12 8 13
REMARK SMILES IDX 5 15 2 16 1 17 3 18 4 19 31 20 32 21 29 22 28 23 30 24 25 25
REMARK SMILES IDX 26 26 27 27 24 28 18 30 33 31 34 32 19 33 20 34 21 35 22 36
REMARK SMILES IDX 23 37
REMARK H PARENT 11 10 6 14
REMARK Flexibility Score:  115.900
ROOT
ATOM      1  C   UNL     1      32.707  14.679  -2.818  1.00  0.00     0.085 A
ATOM      2  C   UNL     1      33.800  15.539  -2.809  1.00  0.00     0.100 A
ATOM      3  N   UNL     1      34.948  14.792  -2.750  1.00  0.00    -0.344 N
ATOM      4  C   UNL     1      34.626  13.466  -2.722  1.00  0.00     0.156 A
ATOM      5  N   UNL     1      35.504  12.447  -2.675  1.00  0.00    -0.235 NA
ATOM      6  C   UNL     1      34.852  11.256  -2.671  1.00  0.00     0.138 A
ATOM      7  C   UNL     1      33.460  11.084  -2.704  1.00  0.00     0.066 A
ATOM      8  N   UNL     1      32.613  12.152  -2.748  1.00  0.00    -0.246 NA
ATOM      9  C   UNL     1      33.241  13.361  -2.757  1.00  0.00     0.120 A
ATOM     10  H   UNL     1      35.895  15.146  -2.738  1.00  0.00     0.168 HD
ENDROOT
BRANCH   1  11
ATOM     11  C   UNL     1      31.320  15.113  -2.892  1.00  0.00     0.255 C
ATOM     12  N   UNL     1      30.841  15.319  -4.167  1.00  0.00    -0.340 N
ATOM     13  O   UNL     1      30.639  15.294  -1.889  1.00  0.00    -0.269 OA
ATOM     14  H   UNL     1      31.471  15.150  -4.946  1.00  0.00     0.164 HD
BRANCH  12  15
ATOM     15  C   UNL     1      29.472  15.780  -4.402  1.00  0.00     0.177 C
BRANCH  15  16
ATOM     16  C   UNL     1      28.709  14.880  -5.430  1.00  0.00    -0.009 C
ATOM     17  C   UNL     1      28.682  15.554  -6.818  1.00  0.00     0.013 C
ATOM     18  C   UNL     1      27.241  14.707  -4.974  1.00  0.00     0.013 C
ATOM     19  C   UNL     1      29.331  13.483  -5.586  1.00  0.00     0.013 C
ENDBRANCH  15  16
BRANCH  15  20
ATOM     20  C   UNL     1      29.396  17.305  -4.709  1.00  0.00     0.245 C
ATOM     21  O   UNL     1      28.301  17.870  -4.800  1.00  0.00    -0.272 OA
BRANCH  20  22
ATOM     22  N   UNL     1      30.537  17.995  -5.012  1.00  0.00    -0.338 N
ATOM     23  C   UNL     1      31.564  18.684  -4.273  1.00  0.00     0.143 C
ATOM     24  C   UNL     1      31.169  18.166  -6.310  1.00  0.00     0.143 C
ATOM     25  C   UNL     1      32.141  19.162  -5.629  1.00  0.00     0.095 C
ATOM     26  C   UNL     1      31.837  20.556  -5.924  1.00  0.00     0.073 C
ATOM     27  N   UNL     1      31.641  21.677  -6.148  1.00  0.00    -0.198 NA
BRANCH  25  28
ATOM     28  C   UNL     1      33.628  18.857  -5.895  1.00  0.00     0.054 C
ATOM     29  G   UNL     1      34.295  19.958  -6.723  1.00  0.00     0.000 C
ENDBRANCH  25  28
ENDBRANCH  20  22
ENDBRANCH  15  20
ENDBRANCH  12  15
ENDBRANCH   1  11
BRANCH   7  30
ATOM     30  C   UNL     1      32.848   9.685  -2.728  1.00  0.00     0.014 C
ATOM     31  C   UNL     1      33.755   8.490  -2.474  1.00  0.00     0.014 C
ATOM     32  C   UNL     1      32.784   8.918  -1.415  1.00  0.00     0.014 C
BRANCH  30  33
ATOM     33  C   UNL     1      31.687   9.499  -3.699  1.00  0.00     0.016 C
BRANCH  33  34
ATOM     34  C   UNL     1      31.154   8.069  -3.657  1.00  0.00     0.029 C
BRANCH  34  35
ATOM     35  C   UNL     1      30.296   7.702  -4.860  1.00  0.00     0.160 C
BRANCH  35  36
ATOM     36  O   UNL     1      30.423   6.295  -5.074  1.00  0.00    -0.381 OA
BRANCH  36  37
ATOM     37  C   UNL     1      29.187   5.638  -5.353  1.00  0.00     0.162 C
ATOM     38  G   UNL     1      28.163   6.715  -5.724  1.00  0.00     0.000 C
ENDBRANCH  36  37
ENDBRANCH  35  36
ENDBRANCH  34  35
ENDBRANCH  33  34
ENDBRANCH  30  33
ENDBRANCH   7  30
TORSDOF 1
ENDMDL
MODEL 9
REMARK VINA RESULT:      -7.9      2.164      4.353
REMARK SMILES CC(C)(C)[C@H]1NC(=O)c2c[nH]c3ncc(nc23)[C@]2(CCCOCC[C@@]3(C#N)CN(C3)C1=O)CC2
REMARK SMILES IDX 9 1 10 2 11 3 12 4 13 5 14 6 15 7 16 8 17 9 7 11 6 12 8 13
REMARK SMILES IDX 5 15 2 16 1 17 3 18 4 19 31 20 32 21 29 22 28 23 30 24 25 25
REMARK SMILES IDX 26 26 27 27 24 28 18 30 33 31 34 32 19 33 20 34 21 35 22 36
REMARK SMILES IDX 23 37
REMARK H PARENT 11 10 6 14
REMARK Flexibility Score:  115.900
ROOT
ATOM      1  C   UNL     1      32.628  14.705  -2.853  1.00  0.00     0.085 A
ATOM      2  C   UNL     1      33.758  15.516  -2.799  1.00  0.00     0.100 A
ATOM      3  N   UNL     1      34.871  14.717  -2.742  1.00  0.00    -0.344 N
ATOM      4  C   UNL     1      34.491  13.406  -2.759  1.00  0.00     0.156 A
ATOM      5  N   UNL     1      35.322  12.348  -2.728  1.00  0.00    -0.235 NA
ATOM      6  C   UNL     1      34.618  11.188  -2.772  1.00  0.00     0.138 A
ATOM      7  C   UNL     1      33.221  11.079  -2.834  1.00  0.00     0.066 A
ATOM      8  N   UNL     1      32.422  12.184  -2.860  1.00  0.00    -0.246 NA
ATOM      9  C   UNL     1      33.103  13.364  -2.822  1.00  0.00     0.120 A
ATOM     10  H   UNL     1      35.832  15.028  -2.703  1.00  0.00     0.168 HD
ENDROOT
BRANCH   1  11
ATOM     11  C   UNL     1      31.263  15.203  -2.938  1.00  0.00     0.255 C
ATOM     12  N   UNL     1      30.833  15.510  -4.209  1.00  0.00    -0.340 N
ATOM     13  O   UNL     1      30.560  15.349  -1.944  1.00  0.00    -0.269 OA
ATOM     14  H   UNL     1      31.480  15.364  -4.979  1.00  0.00     0.164 HD
BRANCH  12  15
ATOM     15  C   UNL     1      29.493  16.043  -4.452  1.00  0.00     0.177 C
BRANCH  15  16
ATOM     16  C   UNL     1      28.742  15.272  -5.589  1.00  0.00    -0.009 C
ATOM     17  C   UNL     1      29.344  13.862  -5.770  1.00  0.00     0.013 C
ATOM     18  C   UNL     1      28.923  16.025  -6.928  1.00  0.00     0.013 C
ATOM     19  C   UNL     1      27.236  15.121  -5.322  1.00  0.00     0.013 C
ENDBRANCH  15  16
BRANCH  15  20
ATOM     20  C   UNL     1      29.483  17.592  -4.618  1.00  0.00     0.245 C
ATOM     21  O   UNL     1      28.463  18.242  -4.362  1.00  0.00    -0.272 OA
BRANCH  20  22
ATOM     22  N   UNL     1      30.561  18.222  -5.174  1.00  0.00    -0.338 N
ATOM     23  C   UNL     1      30.822  18.977  -6.374  1.00  0.00     0.143 C
ATOM     24  C   UNL     1      31.883  18.421  -4.602  1.00  0.00     0.143 C
ATOM     25  C   UNL     1      32.320  18.981  -5.978  1.00  0.00     0.095 C
ATOM     26  C   UNL     1      33.120  18.043  -6.754  1.00  0.00     0.073 C
ATOM     27  N   UNL     1      33.776  17.334  -7.397  1.00  0.00    -0.198 NA
BRANCH  25  28
ATOM     28  C   UNL     1      33.010  20.356  -5.898  1.00  0.00     0.054 C
ATOM     29  G   UNL     1      34.341  20.368  -6.654  1.00  0.00     0.000 C
ENDBRANCH  25  28
ENDBRANCH  20  22
ENDBRANCH  15  20
ENDBRANCH  12  15
ENDBRANCH   1  11
BRANCH   7  30
ATOM     30  C   UNL     1      32.548   9.710  -2.911  1.00  0.00     0.014 C
ATOM     31  C   UNL     1      33.319   8.493  -2.421  1.00  0.00     0.014 C
ATOM     32  C   UNL     1      32.183   9.027  -1.601  1.00  0.00     0.014 C
BRANCH  30  33
ATOM     33  C   UNL     1      31.594   9.519  -4.085  1.00  0.00     0.016 C
BRANCH  33  34
ATOM     34  C   UNL     1      30.328  10.354  -3.911  1.00  0.00     0.029 C
BRANCH  34  35
ATOM     35  C   UNL     1      29.360  10.246  -5.081  1.00  0.00     0.160 C
BRANCH  35  36
ATOM     36  O   UNL     1      29.016   8.869  -5.238  1.00  0.00    -0.381 OA
BRANCH  36  37
ATOM     37  C   UNL     1      29.043   8.417  -6.592  1.00  0.00     0.162 C
ATOM     38  G   UNL     1      29.047   6.886  -6.570  1.00  0.00     0.000 C
ENDBRANCH  36  37
ENDBRANCH  35  36
ENDBRANCH  34  35
ENDBRANCH  33  34
ENDBRANCH  30  33
ENDBRANCH   7  30
TORSDOF 1
ENDMDL
