MODEL 1
REMARK VINA RESULT:      -8.3      0.000      0.000
REMARK SMILES CC(C)(C)[C@H]1NC(=O)c2c[nH]c3ncc(nc23)C2(CCC[C@@H]3[C@@H](C#N)CN3C1=O)CC2
REMARK SMILES IDX 6 1 7 2 8 3 5 5 2 6 1 7 3 8 4 9 28 10 29 11 27 12 26 13
REMARK SMILES IDX 22 14 23 15 24 16 25 17 21 18 9 20 10 21 17 22 11 23 16 24
REMARK SMILES IDX 12 25 15 26 13 27 14 28 18 30 30 31 31 32 19 33 20 34
REMARK H PARENT 6 4 11 29
REMARK Flexibility Score:   64.900
ROOT
ATOM      1  N   UNL     1      28.999  12.604  -5.926  1.00  0.00    -0.340 N
ATOM      2  C   UNL     1      28.029  11.740  -5.484  1.00  0.00     0.255 C
ATOM      3  O   UNL     1      26.994  12.106  -4.940  1.00  0.00    -0.269 OA
ATOM      4  H   UNL     1      29.823  12.199  -6.369  1.00  0.00     0.164 HD
ENDROOT
BRANCH   1   5
ATOM      5  C   UNL     1      29.089  14.006  -5.514  1.00  0.00     0.177 C
BRANCH   5   6
ATOM      6  C   UNL     1      28.344  14.961  -6.494  1.00  0.00    -0.009 C
ATOM      7  C   UNL     1      27.178  15.645  -5.745  1.00  0.00     0.013 C
ATOM      8  C   UNL     1      29.298  16.072  -6.975  1.00  0.00     0.013 C
ATOM      9  C   UNL     1      27.751  14.236  -7.719  1.00  0.00     0.013 C
ENDBRANCH   5   6
BRANCH   5  10
ATOM     10  C   UNL     1      30.618  14.228  -5.358  1.00  0.00     0.246 C
ATOM     11  O   UNL     1      31.466  13.541  -5.925  1.00  0.00    -0.272 OA
BRANCH  10  12
ATOM     12  N   UNL     1      30.979  15.187  -4.446  1.00  0.00    -0.335 N
ATOM     13  C   UNL     1      30.233  16.088  -3.594  1.00  0.00     0.141 C
ATOM     14  C   UNL     1      32.290  15.710  -4.084  1.00  0.00     0.104 C
ATOM     15  C   UNL     1      31.525  16.920  -3.482  1.00  0.00     0.134 C
ATOM     16  C   UNL     1      31.554  18.126  -4.282  1.00  0.00     0.070 C
ATOM     17  N   UNL     1      31.577  19.102  -4.908  1.00  0.00    -0.198 NA
BRANCH  14  18
ATOM     18  C   UNL     1      32.999  14.847  -3.033  1.00  0.00     0.026 C
ATOM     19  G   UNL     1      34.515  15.068  -3.038  1.00  0.00     0.000 C
ENDBRANCH  14  18
ENDBRANCH  10  12
ENDBRANCH   5  10
ENDBRANCH   1   5
BRANCH   2  20
ATOM     20  C   UNL     1      28.382  10.336  -5.637  1.00  0.00     0.085 A
ATOM     21  C   UNL     1      27.647   9.375  -6.319  1.00  0.00     0.100 A
ATOM     22  C   UNL     1      29.481   9.650  -5.052  1.00  0.00     0.120 A
ATOM     23  N   UNL     1      28.265   8.156  -6.159  1.00  0.00    -0.344 N
ATOM     24  N   UNL     1      30.483  10.128  -4.268  1.00  0.00    -0.246 NA
ATOM     25  C   UNL     1      29.364   8.304  -5.359  1.00  0.00     0.156 A
ATOM     26  C   UNL     1      31.327   9.178  -3.789  1.00  0.00     0.066 A
ATOM     27  N   UNL     1      30.174   7.320  -4.927  1.00  0.00    -0.235 NA
ATOM     28  C   UNL     1      31.150   7.825  -4.123  1.00  0.00     0.138 A
ATOM     29  H   UNL     1      27.950   7.271  -6.529  1.00  0.00     0.168 HD
BRANCH  26  30
ATOM     30  C   UNL     1      32.460   9.638  -2.876  1.00  0.00     0.014 C
ATOM     31  C   UNL     1      32.509   9.097  -1.452  1.00  0.00     0.014 C
ATOM     32  C   UNL     1      33.493   8.598  -2.462  1.00  0.00     0.014 C
BRANCH  30  33
ATOM     33  C   UNL     1      32.966  11.059  -3.112  1.00  0.00     0.013 C
BRANCH  33  34
ATOM     34  C   UNL     1      34.494  11.144  -3.262  1.00  0.00     0.003 C
ATOM     35  G   UNL     1      35.186  11.712  -2.018  1.00  0.00     0.000 C
ENDBRANCH  33  34
ENDBRANCH  30  33
ENDBRANCH  26  30
ENDBRANCH   2  20
TORSDOF 1
ENDMDL
MODEL 2
REMARK VINA RESULT:      -8.0      2.394      4.875
REMARK SMILES CC(C)(C)[C@H]1NC(=O)c2c[nH]c3ncc(nc23)C2(CCC[C@@H]3[C@@H](C#N)CN3C1=O)CC2
REMARK SMILES IDX 6 1 7 2 8 3 5 5 2 6 1 7 3 8 4 9 28 10 29 11 27 12 26 13
REMARK SMILES IDX 22 14 23 15 24 16 25 17 21 18 9 20 10 21 17 22 11 23 16 24
REMARK SMILES IDX 12 25 15 26 13 27 14 28 18 30 30 31 31 32 19 33 20 34
REMARK H PARENT 6 4 11 29
REMARK Flexibility Score:   64.900
ROOT
ATOM      1  N   UNL     1      31.189  15.352  -4.487  1.00  0.00    -0.340 N
ATOM      2  C   UNL     1      31.594  15.395  -3.177  1.00  0.00     0.255 C
ATOM      3  O   UNL     1      31.016  16.040  -2.311  1.00  0.00    -0.269 OA
ATOM      4  H   UNL     1      31.736  14.781  -5.131  1.00  0.00     0.164 HD
ENDROOT
BRANCH   1   5
ATOM      5  C   UNL     1      30.253  16.308  -5.081  1.00  0.00     0.177 C
BRANCH   5   6
ATOM      6  C   UNL     1      29.085  15.605  -5.835  1.00  0.00    -0.009 C
ATOM      7  C   UNL     1      27.783  15.775  -5.020  1.00  0.00     0.013 C
ATOM      8  C   UNL     1      28.861  16.274  -7.205  1.00  0.00     0.013 C
ATOM      9  C   UNL     1      29.313  14.094  -6.039  1.00  0.00     0.013 C
ENDBRANCH   5   6
BRANCH   5  10
ATOM     10  C   UNL     1      31.178  17.220  -5.933  1.00  0.00     0.246 C
ATOM     11  O   UNL     1      31.938  16.796  -6.802  1.00  0.00    -0.272 OA
BRANCH  10  12
ATOM     12  N   UNL     1      31.178  18.546  -5.579  1.00  0.00    -0.335 N
ATOM     13  C   UNL     1      30.447  19.319  -4.598  1.00  0.00     0.141 C
ATOM     14  C   UNL     1      31.874  19.686  -6.161  1.00  0.00     0.104 C
ATOM     15  C   UNL     1      30.839  20.567  -5.412  1.00  0.00     0.134 C
ATOM     16  C   UNL     1      29.786  21.118  -6.240  1.00  0.00     0.070 C
ATOM     17  N   UNL     1      28.944  21.576  -6.892  1.00  0.00    -0.198 NA
BRANCH  14  18
ATOM     18  C   UNL     1      33.306  19.835  -5.631  1.00  0.00     0.026 C
ATOM     19  G   UNL     1      34.334  19.885  -6.766  1.00  0.00     0.000 C
ENDBRANCH  14  18
ENDBRANCH  10  12
ENDBRANCH   5  10
ENDBRANCH   1   5
BRANCH   2  20
ATOM     20  C   UNL     1      32.833  14.674  -2.923  1.00  0.00     0.085 A
ATOM     21  C   UNL     1      34.078  15.240  -2.684  1.00  0.00     0.100 A
ATOM     22  C   UNL     1      33.040  13.269  -2.960  1.00  0.00     0.120 A
ATOM     23  N   UNL     1      35.006  14.230  -2.580  1.00  0.00    -0.344 N
ATOM     24  N   UNL     1      32.149  12.266  -3.183  1.00  0.00    -0.246 NA
ATOM     25  C   UNL     1      34.393  13.026  -2.783  1.00  0.00     0.156 A
ATOM     26  C   UNL     1      32.699  11.026  -3.250  1.00  0.00     0.066 A
ATOM     27  N   UNL     1      34.993  11.822  -2.825  1.00  0.00    -0.235 NA
ATOM     28  C   UNL     1      34.080  10.843  -3.077  1.00  0.00     0.138 A
ATOM     29  H   UNL     1      35.998  14.341  -2.423  1.00  0.00     0.168 HD
BRANCH  26  30
ATOM     30  C   UNL     1      31.761   9.855  -3.528  1.00  0.00     0.014 C
ATOM     31  C   UNL     1      32.269   8.442  -3.261  1.00  0.00     0.014 C
ATOM     32  C   UNL     1      31.269   9.053  -2.330  1.00  0.00     0.014 C
BRANCH  30  33
ATOM     33  C   UNL     1      30.780  10.049  -4.681  1.00  0.00     0.013 C
BRANCH  33  34
ATOM     34  C   UNL     1      29.370  10.451  -4.219  1.00  0.00     0.003 C
ATOM     35  G   UNL     1      28.362  10.528  -5.370  1.00  0.00     0.000 C
ENDBRANCH  33  34
ENDBRANCH  30  33
ENDBRANCH  26  30
ENDBRANCH   2  20
TORSDOF 1
ENDMDL
MODEL 3
REMARK VINA RESULT:      -8.0      1.653      2.010
REMARK SMILES CC(C)(C)[C@H]1NC(=O)c2c[nH]c3ncc(nc23)C2(CCC[C@@H]3[C@@H](C#N)CN3C1=O)CC2
REMARK SMILES IDX 6 1 7 2 8 3 5 5 2 6 1 7 3 8 4 9 28 10 29 11 27 12 26 13
REMARK SMILES IDX 22 14 23 15 24 16 25 17 21 18 9 20 10 21 17 22 11 23 16 24
REMARK SMILES IDX 12 25 15 26 13 27 14 28 18 30 30 31 31 32 19 33 20 34
REMARK H PARENT 6 4 11 29
REMARK Flexibility Score:   64.900
ROOT
ATOM      1  N   UNL     1      28.836  14.180  -5.339  1.00  0.00    -0.340 N
ATOM      2  C   UNL     1      28.978  13.252  -4.338  1.00  0.00     0.255 C
ATOM      3  O   UNL     1      29.060  13.546  -3.151  1.00  0.00    -0.269 OA
ATOM      4  H   UNL     1      28.773  13.834  -6.296  1.00  0.00     0.164 HD
ENDROOT
BRANCH   1   5
ATOM      5  C   UNL     1      29.102  15.609  -5.168  1.00  0.00     0.177 C
BRANCH   5   6
ATOM      6  C   UNL     1      28.115  16.498  -5.981  1.00  0.00    -0.009 C
ATOM      7  C   UNL     1      26.763  15.760  -6.114  1.00  0.00     0.013 C
ATOM      8  C   UNL     1      27.847  17.816  -5.228  1.00  0.00     0.013 C
ATOM      9  C   UNL     1      28.614  16.819  -7.404  1.00  0.00     0.013 C
ENDBRANCH   5   6
BRANCH   5  10
ATOM     10  C   UNL     1      30.607  15.732  -5.534  1.00  0.00     0.246 C
ATOM     11  O   UNL     1      31.236  14.857  -6.127  1.00  0.00    -0.272 OA
BRANCH  10  12
ATOM     12  N   UNL     1      31.236  16.852  -5.052  1.00  0.00    -0.335 N
ATOM     13  C   UNL     1      31.199  17.553  -3.786  1.00  0.00     0.141 C
ATOM     14  C   UNL     1      32.118  17.806  -5.711  1.00  0.00     0.104 C
ATOM     15  C   UNL     1      31.790  18.763  -4.534  1.00  0.00     0.134 C
ATOM     16  C   UNL     1      30.846  19.817  -4.843  1.00  0.00     0.070 C
ATOM     17  N   UNL     1      30.100  20.674  -5.079  1.00  0.00    -0.198 NA
BRANCH  14  18
ATOM     18  C   UNL     1      33.579  17.339  -5.735  1.00  0.00     0.026 C
ATOM     19  G   UNL     1      34.372  17.997  -6.869  1.00  0.00     0.000 C
ENDBRANCH  14  18
ENDBRANCH  10  12
ENDBRANCH   5  10
ENDBRANCH   1   5
BRANCH   2  20
ATOM     20  C   UNL     1      29.114  11.886  -4.821  1.00  0.00     0.085 A
ATOM     21  C   UNL     1      28.217  11.211  -5.638  1.00  0.00     0.100 A
ATOM     22  C   UNL     1      30.126  10.946  -4.486  1.00  0.00     0.120 A
ATOM     23  N   UNL     1      28.656   9.918  -5.796  1.00  0.00    -0.344 N
ATOM     24  N   UNL     1      31.222  11.096  -3.695  1.00  0.00    -0.246 NA
ATOM     25  C   UNL     1      29.799   9.732  -5.070  1.00  0.00     0.156 A
ATOM     26  C   UNL     1      31.938   9.959  -3.502  1.00  0.00     0.066 A
ATOM     27  N   UNL     1      30.476   8.578  -4.927  1.00  0.00    -0.235 NA
ATOM     28  C   UNL     1      31.550   8.753  -4.108  1.00  0.00     0.138 A
ATOM     29  H   UNL     1      28.199   9.189  -6.325  1.00  0.00     0.168 HD
BRANCH  26  30
ATOM     30  C   UNL     1      33.166  10.045  -2.600  1.00  0.00     0.014 C
ATOM     31  C   UNL     1      33.241   9.125  -1.387  1.00  0.00     0.014 C
ATOM     32  C   UNL     1      34.105   8.846  -2.577  1.00  0.00     0.014 C
BRANCH  30  33
ATOM     33  C   UNL     1      33.806  11.427  -2.481  1.00  0.00     0.013 C
BRANCH  33  34
ATOM     34  C   UNL     1      35.340  11.381  -2.389  1.00  0.00     0.003 C
ATOM     35  G   UNL     1      35.870  11.813  -1.018  1.00  0.00     0.000 C
ENDBRANCH  33  34
ENDBRANCH  30  33
ENDBRANCH  26  30
ENDBRANCH   2  20
TORSDOF 1
ENDMDL
MODEL 4
REMARK VINA RESULT:      -7.9      1.275      1.673
REMARK SMILES CC(C)(C)[C@H]1NC(=O)c2c[nH]c3ncc(nc23)C2(CCC[C@@H]3[C@@H](C#N)CN3C1=O)CC2
REMARK SMILES IDX 6 1 7 2 8 3 5 5 2 6 1 7 3 8 4 9 28 10 29 11 27 12 26 13
REMARK SMILES IDX 22 14 23 15 24 16 25 17 21 18 9 20 10 21 17 22 11 23 16 24
REMARK SMILES IDX 12 25 15 26 13 27 14 28 18 30 30 31 31 32 19 33 20 34
REMARK H PARENT 6 4 11 29
REMARK Flexibility Score:   64.900
ROOT
ATOM      1  N   UNL     1      28.385  13.771  -5.457  1.00  0.00    -0.340 N
ATOM      2  C   UNL     1      28.834  12.966  -4.440  1.00  0.00     0.255 C
ATOM      3  O   UNL     1      29.166  13.389  -3.339  1.00  0.00    -0.269 OA
ATOM      4  H   UNL     1      28.129  13.321  -6.335  1.00  0.00     0.164 HD
ENDROOT
BRANCH   1   5
ATOM      5  C   UNL     1      28.564  15.223  -5.484  1.00  0.00     0.177 C
BRANCH   5   6
ATOM      6  C   UNL     1      27.568  15.925  -6.455  1.00  0.00    -0.009 C
ATOM      7  C   UNL     1      28.322  16.341  -7.738  1.00  0.00     0.013 C
ATOM      8  C   UNL     1      26.456  14.943  -6.873  1.00  0.00     0.013 C
ATOM      9  C   UNL     1      26.927  17.194  -5.858  1.00  0.00     0.013 C
ENDBRANCH   5   6
BRANCH   5  10
ATOM     10  C   UNL     1      30.074  15.384  -5.805  1.00  0.00     0.246 C
ATOM     11  O   UNL     1      30.717  14.578  -6.476  1.00  0.00    -0.272 OA
BRANCH  10  12
ATOM     12  N   UNL     1      30.692  16.446  -5.193  1.00  0.00    -0.335 N
ATOM     13  C   UNL     1      30.285  17.802  -4.893  1.00  0.00     0.141 C
ATOM     14  C   UNL     1      32.056  16.602  -4.705  1.00  0.00     0.104 C
ATOM     15  C   UNL     1      31.783  18.129  -4.738  1.00  0.00     0.134 C
ATOM     16  C   UNL     1      32.378  18.837  -5.852  1.00  0.00     0.070 C
ATOM     17  N   UNL     1      32.858  19.419  -6.733  1.00  0.00    -0.198 NA
BRANCH  14  18
ATOM     18  C   UNL     1      32.242  16.041  -3.289  1.00  0.00     0.026 C
ATOM     19  G   UNL     1      33.278  14.912  -3.252  1.00  0.00     0.000 C
ENDBRANCH  14  18
ENDBRANCH  10  12
ENDBRANCH   5  10
ENDBRANCH   1   5
BRANCH   2  20
ATOM     20  C   UNL     1      28.967  11.566  -4.816  1.00  0.00     0.085 A
ATOM     21  C   UNL     1      28.042  10.817  -5.533  1.00  0.00     0.100 A
ATOM     22  C   UNL     1      30.006  10.667  -4.455  1.00  0.00     0.120 A
ATOM     23  N   UNL     1      28.493   9.520  -5.607  1.00  0.00    -0.344 N
ATOM     24  N   UNL     1      31.135  10.892  -3.731  1.00  0.00    -0.246 NA
ATOM     25  C   UNL     1      29.670   9.406  -4.922  1.00  0.00     0.156 A
ATOM     26  C   UNL     1      31.876   9.782  -3.480  1.00  0.00     0.066 A
ATOM     27  N   UNL     1      30.369   8.274  -4.718  1.00  0.00    -0.235 NA
ATOM     28  C   UNL     1      31.477   8.527  -3.968  1.00  0.00     0.138 A
ATOM     29  H   UNL     1      28.021   8.746  -6.053  1.00  0.00     0.168 HD
BRANCH  26  30
ATOM     30  C   UNL     1      33.143   9.955  -2.647  1.00  0.00     0.014 C
ATOM     31  C   UNL     1      33.261   9.181  -1.338  1.00  0.00     0.014 C
ATOM     32  C   UNL     1      34.069   8.752  -2.523  1.00  0.00     0.014 C
BRANCH  30  33
ATOM     33  C   UNL     1      33.801  11.330  -2.718  1.00  0.00     0.013 C
BRANCH  33  34
ATOM     34  C   UNL     1      35.300  11.306  -2.379  1.00  0.00     0.003 C
ATOM     35  G   UNL     1      35.677  12.284  -1.262  1.00  0.00     0.000 C
ENDBRANCH  33  34
ENDBRANCH  30  33
ENDBRANCH  26  30
ENDBRANCH   2  20
TORSDOF 1
ENDMDL
MODEL 5
REMARK VINA RESULT:      -7.9      1.648      2.334
REMARK SMILES CC(C)(C)[C@H]1NC(=O)c2c[nH]c3ncc(nc23)C2(CCC[C@@H]3[C@@H](C#N)CN3C1=O)CC2
REMARK SMILES IDX 6 1 7 2 8 3 5 5 2 6 1 7 3 8 4 9 28 10 29 11 27 12 26 13
REMARK SMILES IDX 22 14 23 15 24 16 25 17 21 18 9 20 10 21 17 22 11 23 16 24
REMARK SMILES IDX 12 25 15 26 13 27 14 28 18 30 30 31 31 32 19 33 20 34
REMARK H PARENT 6 4 11 29
REMARK Flexibility Score:   64.900
ROOT
ATOM      1  N   UNL     1      28.668  14.524  -5.520  1.00  0.00    -0.340 N
ATOM      2  C   UNL     1      28.779  13.578  -4.533  1.00  0.00     0.255 C
ATOM      3  O   UNL     1      28.897  13.852  -3.345  1.00  0.00    -0.269 OA
ATOM      4  H   UNL     1      28.570  14.193  -6.480  1.00  0.00     0.164 HD
ENDROOT
BRANCH   1   5
ATOM      5  C   UNL     1      29.012  15.935  -5.338  1.00  0.00     0.177 C
BRANCH   5   6
ATOM      6  C   UNL     1      27.862  16.888  -5.782  1.00  0.00    -0.009 C
ATOM      7  C   UNL     1      26.599  16.580  -4.945  1.00  0.00     0.013 C
ATOM      8  C   UNL     1      28.252  18.353  -5.505  1.00  0.00     0.013 C
ATOM      9  C   UNL     1      27.484  16.735  -7.269  1.00  0.00     0.013 C
ENDBRANCH   5   6
BRANCH   5  10
ATOM     10  C   UNL     1      30.357  16.070  -6.102  1.00  0.00     0.246 C
ATOM     11  O   UNL     1      30.435  16.333  -7.301  1.00  0.00    -0.272 OA
BRANCH  10  12
ATOM     12  N   UNL     1      31.478  15.765  -5.371  1.00  0.00    -0.335 N
ATOM     13  C   UNL     1      32.165  14.528  -5.064  1.00  0.00     0.141 C
ATOM     14  C   UNL     1      32.334  16.606  -4.546  1.00  0.00     0.104 C
ATOM     15  C   UNL     1      32.831  15.286  -3.899  1.00  0.00     0.134 C
ATOM     16  C   UNL     1      32.288  15.001  -2.587  1.00  0.00     0.070 C
ATOM     17  N   UNL     1      31.870  14.765  -1.531  1.00  0.00    -0.198 NA
BRANCH  14  18
ATOM     18  C   UNL     1      33.409  17.334  -5.363  1.00  0.00     0.026 C
ATOM     19  G   UNL     1      33.063  18.810  -5.579  1.00  0.00     0.000 C
ENDBRANCH  14  18
ENDBRANCH  10  12
ENDBRANCH   5  10
ENDBRANCH   1   5
BRANCH   2  20
ATOM     20  C   UNL     1      28.835  12.212  -5.033  1.00  0.00     0.085 A
ATOM     21  C   UNL     1      27.899  11.601  -5.858  1.00  0.00     0.100 A
ATOM     22  C   UNL     1      29.791  11.211  -4.712  1.00  0.00     0.120 A
ATOM     23  N   UNL     1      28.263  10.287  -6.033  1.00  0.00    -0.344 N
ATOM     24  N   UNL     1      30.893  11.286  -3.921  1.00  0.00    -0.246 NA
ATOM     25  C   UNL     1      29.393  10.026  -5.311  1.00  0.00     0.156 A
ATOM     26  C   UNL     1      31.543  10.107  -3.743  1.00  0.00     0.066 A
ATOM     27  N   UNL     1      30.002   8.832  -5.184  1.00  0.00    -0.235 NA
ATOM     28  C   UNL     1      31.085   8.934  -4.364  1.00  0.00     0.138 A
ATOM     29  H   UNL     1      27.763   9.593  -6.572  1.00  0.00     0.168 HD
BRANCH  26  30
ATOM     30  C   UNL     1      32.774  10.110  -2.841  1.00  0.00     0.014 C
ATOM     31  C   UNL     1      32.793   9.175  -1.637  1.00  0.00     0.014 C
ATOM     32  C   UNL     1      33.638   8.855  -2.831  1.00  0.00     0.014 C
BRANCH  30  33
ATOM     33  C   UNL     1      33.497  11.449  -2.711  1.00  0.00     0.013 C
BRANCH  33  34
ATOM     34  C   UNL     1      35.007  11.303  -2.463  1.00  0.00     0.003 C
ATOM     35  G   UNL     1      35.598  12.472  -1.669  1.00  0.00     0.000 C
ENDBRANCH  33  34
ENDBRANCH  30  33
ENDBRANCH  26  30
ENDBRANCH   2  20
TORSDOF 1
ENDMDL
MODEL 6
REMARK VINA RESULT:      -7.7      1.858      5.360
REMARK SMILES CC(C)(C)[C@H]1NC(=O)c2c[nH]c3ncc(nc23)C2(CCC[C@@H]3[C@@H](C#N)CN3C1=O)CC2
REMARK SMILES IDX 6 1 7 2 8 3 5 5 2 6 1 7 3 8 4 9 28 10 29 11 27 12 26 13
REMARK SMILES IDX 22 14 23 15 24 16 25 17 21 18 9 20 10 21 17 22 11 23 16 24
REMARK SMILES IDX 12 25 15 26 13 27 14 28 18 30 30 31 31 32 19 33 20 34
REMARK H PARENT 6 4 11 29
REMARK Flexibility Score:   64.900
ROOT
ATOM      1  N   UNL     1      31.725  12.942  -3.592  1.00  0.00    -0.340 N
ATOM      2  C   UNL     1      31.964  11.961  -4.521  1.00  0.00     0.255 C
ATOM      3  O   UNL     1      32.138  12.186  -5.713  1.00  0.00    -0.269 OA
ATOM      4  H   UNL     1      31.597  12.652  -2.623  1.00  0.00     0.164 HD
ENDROOT
BRANCH   1   5
ATOM      5  C   UNL     1      31.314  14.305  -3.935  1.00  0.00     0.177 C
BRANCH   5   6
ATOM      6  C   UNL     1      31.944  15.370  -2.989  1.00  0.00    -0.009 C
ATOM      7  C   UNL     1      31.570  16.781  -3.497  1.00  0.00     0.013 C
ATOM      8  C   UNL     1      31.364  15.224  -1.569  1.00  0.00     0.013 C
ATOM      9  C   UNL     1      33.482  15.291  -2.920  1.00  0.00     0.013 C
ENDBRANCH   5   6
BRANCH   5  10
ATOM     10  C   UNL     1      29.764  14.213  -3.940  1.00  0.00     0.246 C
ATOM     11  O   UNL     1      29.126  13.448  -3.219  1.00  0.00    -0.272 OA
BRANCH  10  12
ATOM     12  N   UNL     1      29.136  14.974  -4.894  1.00  0.00    -0.335 N
ATOM     13  C   UNL     1      29.595  15.677  -6.073  1.00  0.00     0.141 C
ATOM     14  C   UNL     1      27.756  15.429  -4.992  1.00  0.00     0.104 C
ATOM     15  C   UNL     1      28.284  16.484  -6.000  1.00  0.00     0.134 C
ATOM     16  C   UNL     1      28.415  17.826  -5.473  1.00  0.00     0.070 C
ATOM     17  N   UNL     1      28.514  18.908  -5.069  1.00  0.00    -0.198 NA
BRANCH  14  18
ATOM     18  C   UNL     1      26.833  14.380  -5.627  1.00  0.00     0.026 C
ATOM     19  G   UNL     1      25.449  14.363  -4.971  1.00  0.00     0.000 C
ENDBRANCH  14  18
ENDBRANCH  10  12
ENDBRANCH   5  10
ENDBRANCH   1   5
BRANCH   2  20
ATOM     20  C   UNL     1      31.903  10.612  -3.977  1.00  0.00     0.085 A
ATOM     21  C   UNL     1      32.712  10.095  -2.974  1.00  0.00     0.100 A
ATOM     22  C   UNL     1      31.084   9.538  -4.417  1.00  0.00     0.120 A
ATOM     23  N   UNL     1      32.404   8.765  -2.806  1.00  0.00    -0.344 N
ATOM     24  N   UNL     1      30.138   9.511  -5.393  1.00  0.00    -0.246 NA
ATOM     25  C   UNL     1      31.439   8.403  -3.704  1.00  0.00     0.156 A
ATOM     26  C   UNL     1      29.605   8.285  -5.630  1.00  0.00     0.066 A
ATOM     27  N   UNL     1      30.938   7.167  -3.883  1.00  0.00    -0.235 NA
ATOM     28  C   UNL     1      30.015   7.167  -4.885  1.00  0.00     0.138 A
ATOM     29  H   UNL     1      32.841   8.126  -2.157  1.00  0.00     0.168 HD
BRANCH  26  30
ATOM     30  C   UNL     1      28.558   8.173  -6.733  1.00  0.00     0.014 C
ATOM     31  C   UNL     1      29.022   8.248  -8.184  1.00  0.00     0.014 C
ATOM     32  C   UNL     1      28.596   6.931  -7.613  1.00  0.00     0.014 C
BRANCH  30  33
ATOM     33  C   UNL     1      27.180   8.743  -6.400  1.00  0.00     0.013 C
BRANCH  33  34
ATOM     34  C   UNL     1      26.264   7.738  -5.684  1.00  0.00     0.003 C
ATOM     35  G   UNL     1      24.986   7.428  -6.470  1.00  0.00     0.000 C
ENDBRANCH  33  34
ENDBRANCH  30  33
ENDBRANCH  26  30
ENDBRANCH   2  20
TORSDOF 1
ENDMDL
MODEL 7
REMARK VINA RESULT:      -7.7      2.474      4.831
REMARK SMILES CC(C)(C)[C@H]1NC(=O)c2c[nH]c3ncc(nc23)C2(CCC[C@@H]3[C@@H](C#N)CN3C1=O)CC2
REMARK SMILES IDX 6 1 7 2 8 3 5 5 2 6 1 7 3 8 4 9 28 10 29 11 27 12 26 13
REMARK SMILES IDX 22 14 23 15 24 16 25 17 21 18 9 20 10 21 17 22 11 23 16 24
REMARK SMILES IDX 12 25 15 26 13 27 14 28 18 30 30 31 31 32 19 33 20 34
REMARK H PARENT 6 4 11 29
REMARK Flexibility Score:   64.900
ROOT
ATOM      1  N   UNL     1      30.800  15.423  -4.533  1.00  0.00    -0.340 N
ATOM      2  C   UNL     1      31.421  15.625  -3.326  1.00  0.00     0.255 C
ATOM      3  O   UNL     1      31.113  16.521  -2.549  1.00  0.00    -0.269 OA
ATOM      4  H   UNL     1      31.127  14.647  -5.107  1.00  0.00     0.164 HD
ENDROOT
BRANCH   1   5
ATOM      5  C   UNL     1      29.951  16.419  -5.189  1.00  0.00     0.177 C
BRANCH   5   6
ATOM      6  C   UNL     1      28.776  15.771  -5.978  1.00  0.00    -0.009 C
ATOM      7  C   UNL     1      29.000  14.243  -6.054  1.00  0.00     0.013 C
ATOM      8  C   UNL     1      27.447  16.004  -5.233  1.00  0.00     0.013 C
ATOM      9  C   UNL     1      28.647  16.296  -7.422  1.00  0.00     0.013 C
ENDBRANCH   5   6
BRANCH   5  10
ATOM     10  C   UNL     1      30.967  17.252  -6.018  1.00  0.00     0.246 C
ATOM     11  O   UNL     1      31.691  16.771  -6.887  1.00  0.00    -0.272 OA
BRANCH  10  12
ATOM     12  N   UNL     1      31.089  18.567  -5.643  1.00  0.00    -0.335 N
ATOM     13  C   UNL     1      30.433  19.388  -4.648  1.00  0.00     0.141 C
ATOM     14  C   UNL     1      31.886  19.647  -6.208  1.00  0.00     0.104 C
ATOM     15  C   UNL     1      30.937  20.608  -5.443  1.00  0.00     0.134 C
ATOM     16  C   UNL     1      29.939  21.266  -6.259  1.00  0.00     0.070 C
ATOM     17  N   UNL     1      29.141  21.810  -6.902  1.00  0.00    -0.198 NA
BRANCH  14  18
ATOM     18  C   UNL     1      33.327  19.656  -5.680  1.00  0.00     0.026 C
ATOM     19  G   UNL     1      34.302  19.006  -6.667  1.00  0.00     0.000 C
ENDBRANCH  14  18
ENDBRANCH  10  12
ENDBRANCH   5  10
ENDBRANCH   1   5
BRANCH   2  20
ATOM     20  C   UNL     1      32.546  14.732  -3.090  1.00  0.00     0.085 A
ATOM     21  C   UNL     1      33.852  15.113  -2.812  1.00  0.00     0.100 A
ATOM     22  C   UNL     1      32.560  13.314  -3.184  1.00  0.00     0.120 A
ATOM     23  N   UNL     1      34.632  13.983  -2.742  1.00  0.00    -0.344 N
ATOM     24  N   UNL     1      31.545  12.453  -3.459  1.00  0.00    -0.246 NA
ATOM     25  C   UNL     1      33.864  12.882  -3.002  1.00  0.00     0.156 A
ATOM     26  C   UNL     1      31.923  11.153  -3.574  1.00  0.00     0.066 A
ATOM     27  N   UNL     1      34.296  11.610  -3.089  1.00  0.00    -0.235 NA
ATOM     28  C   UNL     1      33.263  10.776  -3.393  1.00  0.00     0.138 A
ATOM     29  H   UNL     1      35.627  13.950  -2.569  1.00  0.00     0.168 HD
BRANCH  26  30
ATOM     30  C   UNL     1      30.840  10.133  -3.911  1.00  0.00     0.014 C
ATOM     31  C   UNL     1      29.425  10.637  -4.176  1.00  0.00     0.014 C
ATOM     32  C   UNL     1      30.265  10.161  -5.321  1.00  0.00     0.014 C
BRANCH  30  33
ATOM     33  C   UNL     1      30.992   8.763  -3.254  1.00  0.00     0.013 C
BRANCH  33  34
ATOM     34  C   UNL     1      31.402   7.657  -4.240  1.00  0.00     0.003 C
ATOM     35  G   UNL     1      30.289   6.634  -4.488  1.00  0.00     0.000 C
ENDBRANCH  33  34
ENDBRANCH  30  33
ENDBRANCH  26  30
ENDBRANCH   2  20
TORSDOF 1
ENDMDL
MODEL 8
REMARK VINA RESULT:      -7.7      2.371      4.862
REMARK SMILES CC(C)(C)[C@H]1NC(=O)c2c[nH]c3ncc(nc23)C2(CCC[C@@H]3[C@@H](C#N)CN3C1=O)CC2
REMARK SMILES IDX 6 1 7 2 8 3 5 5 2 6 1 7 3 8 4 9 28 10 29 11 27 12 26 13
REMARK SMILES IDX 22 14 23 15 24 16 25 17 21 18 9 20 10 21 17 22 11 23 16 24
REMARK SMILES IDX 12 25 15 26 13 27 14 28 18 30 30 31 31 32 19 33 20 34
REMARK H PARENT 6 4 11 29
REMARK Flexibility Score:   64.900
ROOT
ATOM      1  N   UNL     1      30.987  14.863  -4.252  1.00  0.00    -0.340 N
ATOM      2  C   UNL     1      31.550  15.209  -3.049  1.00  0.00     0.255 C
ATOM      3  O   UNL     1      31.036  15.996  -2.264  1.00  0.00    -0.269 OA
ATOM      4  H   UNL     1      31.493  14.195  -4.834  1.00  0.00     0.164 HD
ENDROOT
BRANCH   1   5
ATOM      5  C   UNL     1      29.911  15.619  -4.894  1.00  0.00     0.177 C
BRANCH   5   6
ATOM      6  C   UNL     1      28.862  14.693  -5.578  1.00  0.00    -0.009 C
ATOM      7  C   UNL     1      28.597  15.203  -7.013  1.00  0.00     0.013 C
ATOM      8  C   UNL     1      29.417  13.260  -5.695  1.00  0.00     0.013 C
ATOM      9  C   UNL     1      27.509  14.655  -4.839  1.00  0.00     0.013 C
ENDBRANCH   5   6
BRANCH   5  10
ATOM     10  C   UNL     1      30.679  16.600  -5.822  1.00  0.00     0.246 C
ATOM     11  O   UNL     1      31.561  16.248  -6.603  1.00  0.00    -0.272 OA
BRANCH  10  12
ATOM     12  N   UNL     1      30.384  17.928  -5.641  1.00  0.00    -0.335 N
ATOM     13  C   UNL     1      29.310  18.631  -4.971  1.00  0.00     0.141 C
ATOM     14  C   UNL     1      31.027  19.126  -6.163  1.00  0.00     0.104 C
ATOM     15  C   UNL     1      29.709  19.864  -5.806  1.00  0.00     0.134 C
ATOM     16  C   UNL     1      28.842  20.154  -6.928  1.00  0.00     0.070 C
ATOM     17  N   UNL     1      28.143  20.404  -7.819  1.00  0.00    -0.198 NA
BRANCH  14  18
ATOM     18  C   UNL     1      32.228  19.568  -5.317  1.00  0.00     0.026 C
ATOM     19  G   UNL     1      33.497  19.721  -6.161  1.00  0.00     0.000 C
ENDBRANCH  14  18
ENDBRANCH  10  12
ENDBRANCH   5  10
ENDBRANCH   1   5
BRANCH   2  20
ATOM     20  C   UNL     1      32.864  14.623  -2.827  1.00  0.00     0.085 A
ATOM     21  C   UNL     1      34.060  15.317  -2.692  1.00  0.00     0.100 A
ATOM     22  C   UNL     1      33.204  13.244  -2.798  1.00  0.00     0.120 A
ATOM     23  N   UNL     1      35.084  14.406  -2.586  1.00  0.00    -0.344 N
ATOM     24  N   UNL     1      32.403  12.151  -2.912  1.00  0.00    -0.246 NA
ATOM     25  C   UNL     1      34.581  13.139  -2.686  1.00  0.00     0.156 A
ATOM     26  C   UNL     1      33.066  10.966  -2.943  1.00  0.00     0.066 A
ATOM     27  N   UNL     1      35.292  11.996  -2.696  1.00  0.00    -0.235 NA
ATOM     28  C   UNL     1      34.466  10.923  -2.840  1.00  0.00     0.138 A
ATOM     29  H   UNL     1      36.068  14.618  -2.493  1.00  0.00     0.168 HD
BRANCH  26  30
ATOM     30  C   UNL     1      32.233   9.697  -3.100  1.00  0.00     0.014 C
ATOM     31  C   UNL     1      32.832   8.375  -2.632  1.00  0.00     0.014 C
ATOM     32  C   UNL     1      31.746   9.017  -1.827  1.00  0.00     0.014 C
BRANCH  30  33
ATOM     33  C   UNL     1      31.296   9.664  -4.305  1.00  0.00     0.013 C
BRANCH  33  34
ATOM     34  C   UNL     1      29.843  10.023  -3.955  1.00  0.00     0.003 C
ATOM     35  G   UNL     1      28.863   9.732  -5.096  1.00  0.00     0.000 C
ENDBRANCH  33  34
ENDBRANCH  30  33
ENDBRANCH  26  30
ENDBRANCH   2  20
TORSDOF 1
ENDMDL
MODEL 9
REMARK VINA RESULT:      -7.6      2.364      5.611
REMARK SMILES CC(C)(C)[C@H]1NC(=O)c2c[nH]c3ncc(nc23)C2(CCC[C@@H]3[C@@H](C#N)CN3C1=O)CC2
REMARK SMILES IDX 6 1 7 2 8 3 5 5 2 6 1 7 3 8 4 9 28 10 29 11 27 12 26 13
REMARK SMILES IDX 22 14 23 15 24 16 25 17 21 18 9 20 10 21 17 22 11 23 16 24
REMARK SMILES IDX 12 25 15 26 13 27 14 28 18 30 30 31 31 32 19 33 20 34
REMARK H PARENT 6 4 11 29
REMARK Flexibility Score:   64.900
ROOT
ATOM      1  N   UNL     1      32.001  16.265  -4.538  1.00  0.00    -0.340 N
ATOM      2  C   UNL     1      32.591  15.037  -4.698  1.00  0.00     0.255 C
ATOM      3  O   UNL     1      32.240  14.223  -5.543  1.00  0.00    -0.269 OA
ATOM      4  H   UNL     1      32.370  16.873  -3.807  1.00  0.00     0.164 HD
ENDROOT
BRANCH   1   5
ATOM      5  C   UNL     1      30.698  16.621  -5.101  1.00  0.00     0.177 C
BRANCH   5   6
ATOM      6  C   UNL     1      30.486  18.163  -5.177  1.00  0.00    -0.009 C
ATOM      7  C   UNL     1      31.037  18.682  -6.525  1.00  0.00     0.013 C
ATOM      8  C   UNL     1      28.981  18.492  -5.138  1.00  0.00     0.013 C
ATOM      9  C   UNL     1      31.203  18.934  -4.051  1.00  0.00     0.013 C
ENDBRANCH   5   6
BRANCH   5  10
ATOM     10  C   UNL     1      29.703  15.829  -4.209  1.00  0.00     0.246 C
ATOM     11  O   UNL     1      29.739  15.835  -2.980  1.00  0.00    -0.272 OA
BRANCH  10  12
ATOM     12  N   UNL     1      28.829  15.017  -4.887  1.00  0.00    -0.335 N
ATOM     13  C   UNL     1      28.010  15.195  -6.068  1.00  0.00     0.141 C
ATOM     14  C   UNL     1      28.338  13.680  -4.580  1.00  0.00     0.104 C
ATOM     15  C   UNL     1      27.190  13.985  -5.578  1.00  0.00     0.134 C
ATOM     16  C   UNL     1      25.917  14.310  -4.971  1.00  0.00     0.070 C
ATOM     17  N   UNL     1      24.887  14.561  -4.498  1.00  0.00    -0.198 NA
BRANCH  14  18
ATOM     18  C   UNL     1      29.292  12.578  -5.059  1.00  0.00     0.026 C
ATOM     19  G   UNL     1      28.689  11.181  -4.877  1.00  0.00     0.000 C
ENDBRANCH  14  18
ENDBRANCH  10  12
ENDBRANCH   5  10
ENDBRANCH   1   5
BRANCH   2  20
ATOM     20  C   UNL     1      33.619  14.748  -3.708  1.00  0.00     0.085 A
ATOM     21  C   UNL     1      34.579  15.635  -3.238  1.00  0.00     0.100 A
ATOM     22  C   UNL     1      33.907  13.497  -3.099  1.00  0.00     0.120 A
ATOM     23  N   UNL     1      35.417  14.959  -2.383  1.00  0.00    -0.344 N
ATOM     24  N   UNL     1      33.282  12.298  -3.242  1.00  0.00    -0.246 NA
ATOM     25  C   UNL     1      35.042  13.647  -2.318  1.00  0.00     0.156 A
ATOM     26  C   UNL     1      33.878  11.268  -2.588  1.00  0.00     0.066 A
ATOM     27  N   UNL     1      35.669  12.670  -1.637  1.00  0.00    -0.235 NA
ATOM     28  C   UNL     1      35.036  11.478  -1.821  1.00  0.00     0.138 A
ATOM     29  H   UNL     1      36.219  15.343  -1.902  1.00  0.00     0.168 HD
BRANCH  26  30
ATOM     30  C   UNL     1      33.247   9.886  -2.726  1.00  0.00     0.014 C
ATOM     31  C   UNL     1      34.119   8.662  -2.472  1.00  0.00     0.014 C
ATOM     32  C   UNL     1      33.091   9.057  -1.459  1.00  0.00     0.014 C
BRANCH  30  33
ATOM     33  C   UNL     1      32.143   9.763  -3.774  1.00  0.00     0.013 C
BRANCH  33  34
ATOM     34  C   UNL     1      31.034   8.775  -3.376  1.00  0.00     0.003 C
ATOM     35  G   UNL     1      30.712   7.762  -4.479  1.00  0.00     0.000 C
ENDBRANCH  33  34
ENDBRANCH  30  33
ENDBRANCH  26  30
ENDBRANCH   2  20
TORSDOF 1
ENDMDL
