MODEL 1
REMARK VINA RESULT:      -8.3      0.000      0.000
REMARK SMILES N#C[C@H]1CCN(C(=O)[C@@H]2NC(=O)c3c[nH]c4ncc(nc34)[C@@H]3C[C@@H]3CNCC23CC3)C1
REMARK SMILES IDX 13 1 14 2 15 3 16 4 17 5 18 6 19 7 20 8 21 9 11 11 10 12
REMARK SMILES IDX 12 13 9 15 7 16 8 17 6 18 1 19 2 20 3 21 4 22 31 23 5 24
REMARK SMILES IDX 28 25 29 26 30 27 22 29 23 30 24 31 25 32 26 33 27 35
REMARK H PARENT 15 10 10 14 26 34
REMARK Flexibility Score:  106.900
ROOT
ATOM      1  C   UNL     1      28.109  14.156  -6.072  1.00  0.00     0.085 A
ATOM      2  C   UNL     1      26.756  13.871  -5.950  1.00  0.00     0.100 A
ATOM      3  N   UNL     1      26.623  12.629  -5.361  1.00  0.00    -0.344 N
ATOM      4  C   UNL     1      27.859  12.103  -5.106  1.00  0.00     0.156 A
ATOM      5  N   UNL     1      28.146  10.921  -4.524  1.00  0.00    -0.235 NA
ATOM      6  C   UNL     1      29.499  10.747  -4.434  1.00  0.00     0.137 A
ATOM      7  C   UNL     1      30.483  11.645  -4.881  1.00  0.00     0.063 A
ATOM      8  N   UNL     1      30.122  12.802  -5.466  1.00  0.00    -0.247 NA
ATOM      9  C   UNL     1      28.788  13.022  -5.559  1.00  0.00     0.120 A
ATOM     10  H   UNL     1      25.753  12.167  -5.134  1.00  0.00     0.168 HD
ENDROOT
BRANCH   1  11
ATOM     11  C   UNL     1      28.728  15.367  -6.604  1.00  0.00     0.255 C
ATOM     12  N   UNL     1      29.669  15.894  -5.760  1.00  0.00    -0.340 N
ATOM     13  O   UNL     1      28.431  15.858  -7.686  1.00  0.00    -0.269 OA
ATOM     14  H   UNL     1      29.748  15.457  -4.847  1.00  0.00     0.164 HD
BRANCH  12  15
ATOM     15  C   UNL     1      30.429  17.103  -5.968  1.00  0.00     0.179 C
BRANCH  15  16
ATOM     16  C   UNL     1      29.746  18.234  -5.151  1.00  0.00     0.245 C
ATOM     17  O   UNL     1      28.691  18.034  -4.539  1.00  0.00    -0.272 OA
BRANCH  16  18
ATOM     18  N   UNL     1      30.336  19.482  -5.139  1.00  0.00    -0.340 N
ATOM     19  N   UNL     1      34.152  20.996  -5.390  1.00  0.00    -0.198 NA
ATOM     20  C   UNL     1      33.055  21.153  -5.050  1.00  0.00     0.067 C
ATOM     21  C   UNL     1      31.663  21.389  -4.631  1.00  0.00     0.114 C
ATOM     22  C   UNL     1      30.763  21.684  -5.834  1.00  0.00     0.042 C
ATOM     23  C   UNL     1      31.034  20.130  -4.034  1.00  0.00     0.138 C
ATOM     24  C   UNL     1      30.374  20.301  -6.337  1.00  0.00     0.121 C
ENDBRANCH  16  18
ENDBRANCH  15  16
BRANCH  15  25
ATOM     25  C   UNL     1      31.904  16.901  -5.543  1.00  0.00     0.012 C
ATOM     26  C   UNL     1      32.780  16.130  -6.524  1.00  0.00     0.012 C
ATOM     27  C   UNL     1      32.969  17.607  -6.371  1.00  0.00     0.012 C
ATOM     28  G   UNL     1      32.214  16.671  -4.058  1.00  0.00     0.000 C
ENDBRANCH  15  25
ENDBRANCH  12  15
ENDBRANCH   1  11
BRANCH   7  29
ATOM     29  C   UNL     1      31.963  11.346  -4.776  1.00  0.00     0.044 C
ATOM     30  C   UNL     1      32.507  10.656  -3.551  1.00  0.00     0.016 C
ATOM     31  C   UNL     1      32.910  12.086  -3.824  1.00  0.00     0.013 C
BRANCH  31  32
ATOM     32  C   UNL     1      32.507  13.134  -2.826  1.00  0.00     0.085 C
BRANCH  32  33
ATOM     33  N   UNL     1      33.635  13.859  -2.232  1.00  0.00    -0.316 NA
ATOM     34  H   UNL     1      33.563  14.823  -2.579  1.00  0.00     0.122 HD
BRANCH  33  35
ATOM     35  C   UNL     1      34.953  13.327  -2.558  1.00  0.00     0.090 C
ATOM     36  G   UNL     1      35.522  12.411  -1.468  1.00  0.00     0.000 C
ENDBRANCH  33  35
ENDBRANCH  32  33
ENDBRANCH  31  32
ENDBRANCH   7  29
TORSDOF 2
ENDMDL
MODEL 2
REMARK VINA RESULT:      -8.1      2.130      7.616
REMARK SMILES N#C[C@H]1CCN(C(=O)[C@@H]2NC(=O)c3c[nH]c4ncc(nc34)[C@@H]3C[C@@H]3CNCC23CC3)C1
REMARK SMILES IDX 13 1 14 2 15 3 16 4 17 5 18 6 19 7 20 8 21 9 11 11 10 12
REMARK SMILES IDX 12 13 9 15 7 16 8 17 6 18 1 19 2 20 3 21 4 22 31 23 5 24
REMARK SMILES IDX 28 25 29 26 30 27 22 29 23 30 24 31 25 32 26 33 27 35
REMARK H PARENT 15 10 10 14 26 34
REMARK Flexibility Score:  106.900
ROOT
ATOM      1  C   UNL     1      27.871  17.575  -5.791  1.00  0.00     0.085 A
ATOM      2  C   UNL     1      26.853  17.819  -6.702  1.00  0.00     0.100 A
ATOM      3  N   UNL     1      27.023  19.089  -7.217  1.00  0.00    -0.344 N
ATOM      4  C   UNL     1      28.123  19.673  -6.653  1.00  0.00     0.156 A
ATOM      5  N   UNL     1      28.626  20.898  -6.908  1.00  0.00    -0.235 NA
ATOM      6  C   UNL     1      29.744  21.124  -6.153  1.00  0.00     0.137 A
ATOM      7  C   UNL     1      30.312  20.236  -5.224  1.00  0.00     0.063 A
ATOM      8  N   UNL     1      29.746  19.033  -5.011  1.00  0.00    -0.247 NA
ATOM      9  C   UNL     1      28.646  18.762  -5.754  1.00  0.00     0.120 A
ATOM     10  H   UNL     1      26.440  19.534  -7.913  1.00  0.00     0.168 HD
ENDROOT
BRANCH   1  11
ATOM     11  C   UNL     1      28.118  16.357  -5.025  1.00  0.00     0.255 C
ATOM     12  N   UNL     1      29.445  16.168  -4.747  1.00  0.00    -0.340 N
ATOM     13  O   UNL     1      27.233  15.586  -4.676  1.00  0.00    -0.269 OA
ATOM     14  H   UNL     1      30.093  16.819  -5.182  1.00  0.00     0.164 HD
BRANCH  12  15
ATOM     15  C   UNL     1      30.027  15.046  -4.049  1.00  0.00     0.179 C
BRANCH  15  16
ATOM     16  C   UNL     1      30.393  13.972  -5.108  1.00  0.00     0.245 C
ATOM     17  O   UNL     1      30.554  14.272  -6.296  1.00  0.00    -0.272 OA
BRANCH  16  18
ATOM     18  N   UNL     1      30.517  12.660  -4.695  1.00  0.00    -0.340 N
ATOM     19  N   UNL     1      29.555   8.947  -6.182  1.00  0.00    -0.198 NA
ATOM     20  C   UNL     1      29.789   9.602  -5.255  1.00  0.00     0.067 C
ATOM     21  C   UNL     1      30.108  10.404  -4.062  1.00  0.00     0.114 C
ATOM     22  C   UNL     1      31.607  10.707  -3.981  1.00  0.00     0.042 C
ATOM     23  C   UNL     1      29.482  11.797  -4.137  1.00  0.00     0.138 C
ATOM     24  C   UNL     1      31.770  11.944  -4.852  1.00  0.00     0.121 C
ENDBRANCH  16  18
ENDBRANCH  15  16
BRANCH  15  25
ATOM     25  C   UNL     1      31.265  15.493  -3.234  1.00  0.00     0.012 C
ATOM     26  C   UNL     1      31.064  15.615  -1.727  1.00  0.00     0.012 C
ATOM     27  C   UNL     1      31.870  14.478  -2.273  1.00  0.00     0.012 C
ATOM     28  G   UNL     1      32.222  16.517  -3.858  1.00  0.00     0.000 C
ENDBRANCH  15  25
ENDBRANCH  12  15
ENDBRANCH   1  11
BRANCH   7  29
ATOM     29  C   UNL     1      31.530  20.593  -4.400  1.00  0.00     0.044 C
ATOM     30  C   UNL     1      32.004  22.022  -4.337  1.00  0.00     0.016 C
ATOM     31  C   UNL     1      32.878  20.991  -5.012  1.00  0.00     0.013 C
BRANCH  31  32
ATOM     32  C   UNL     1      33.160  21.159  -6.478  1.00  0.00     0.085 C
BRANCH  32  33
ATOM     33  N   UNL     1      33.890  20.038  -7.078  1.00  0.00    -0.316 NA
ATOM     34  H   UNL     1      33.895  20.215  -8.090  1.00  0.00     0.122 HD
BRANCH  33  35
ATOM     35  C   UNL     1      33.321  18.720  -6.823  1.00  0.00     0.090 C
ATOM     36  G   UNL     1      34.379  17.615  -6.714  1.00  0.00     0.000 C
ENDBRANCH  33  35
ENDBRANCH  32  33
ENDBRANCH  31  32
ENDBRANCH   7  29
TORSDOF 2
ENDMDL
MODEL 3
REMARK VINA RESULT:      -7.9      2.103      7.411
REMARK SMILES N#C[C@H]1CCN(C(=O)[C@@H]2NC(=O)c3c[nH]c4ncc(nc34)[C@@H]3C[C@@H]3CNCC23CC3)C1
REMARK SMILES IDX 13 1 14 2 15 3 16 4 17 5 18 6 19 7 20 8 21 9 11 11 10 12
REMARK SMILES IDX 12 13 9 15 7 16 8 17 6 18 1 19 2 20 3 21 4 22 31 23 5 24
REMARK SMILES IDX 28 25 29 26 30 27 22 29 23 30 24 31 25 32 26 33 27 35
REMARK H PARENT 15 10 10 14 26 34
REMARK Flexibility Score:  106.900
ROOT
ATOM      1  C   UNL     1      27.919  16.546  -5.912  1.00  0.00     0.085 A
ATOM      2  C   UNL     1      26.943  16.554  -6.899  1.00  0.00     0.100 A
ATOM      3  N   UNL     1      26.939  17.797  -7.500  1.00  0.00    -0.344 N
ATOM      4  C   UNL     1      27.886  18.594  -6.918  1.00  0.00     0.156 A
ATOM      5  N   UNL     1      28.198  19.867  -7.238  1.00  0.00    -0.235 NA
ATOM      6  C   UNL     1      29.206  20.329  -6.436  1.00  0.00     0.137 A
ATOM      7  C   UNL     1      29.843  19.613  -5.409  1.00  0.00     0.063 A
ATOM      8  N   UNL     1      29.468  18.349  -5.137  1.00  0.00    -0.247 NA
ATOM      9  C   UNL     1      28.485  17.847  -5.921  1.00  0.00     0.120 A
ATOM     10  H   UNL     1      26.343  18.090  -8.262  1.00  0.00     0.168 HD
ENDROOT
BRANCH   1  11
ATOM     11  C   UNL     1      28.307  15.441  -5.040  1.00  0.00     0.255 C
ATOM     12  N   UNL     1      29.648  15.431  -4.765  1.00  0.00    -0.340 N
ATOM     13  O   UNL     1      27.516  14.612  -4.607  1.00  0.00    -0.269 OA
ATOM     14  H   UNL     1      30.215  16.106  -5.269  1.00  0.00     0.164 HD
BRANCH  12  15
ATOM     15  C   UNL     1      30.357  14.453  -3.975  1.00  0.00     0.179 C
BRANCH  15  16
ATOM     16  C   UNL     1      30.971  13.414  -4.952  1.00  0.00     0.245 C
ATOM     17  O   UNL     1      31.682  13.768  -5.899  1.00  0.00    -0.272 OA
BRANCH  16  18
ATOM     18  N   UNL     1      30.688  12.077  -4.751  1.00  0.00    -0.340 N
ATOM     19  N   UNL     1      31.808   9.144  -2.093  1.00  0.00    -0.198 NA
ATOM     20  C   UNL     1      31.385   9.411  -3.139  1.00  0.00     0.067 C
ATOM     21  C   UNL     1      30.823   9.720  -4.464  1.00  0.00     0.114 C
ATOM     22  C   UNL     1      29.366  10.177  -4.357  1.00  0.00     0.042 C
ATOM     23  C   UNL     1      31.514  10.927  -5.101  1.00  0.00     0.138 C
ATOM     24  C   UNL     1      29.479  11.666  -4.061  1.00  0.00     0.121 C
ENDBRANCH  16  18
ENDBRANCH  15  16
BRANCH  15  25
ATOM     25  C   UNL     1      31.442  15.135  -3.107  1.00  0.00     0.012 C
ATOM     26  C   UNL     1      31.213  15.096  -1.600  1.00  0.00     0.012 C
ATOM     27  C   UNL     1      32.279  14.236  -2.206  1.00  0.00     0.012 C
ATOM     28  G   UNL     1      32.114  16.407  -3.640  1.00  0.00     0.000 C
ENDBRANCH  15  25
ENDBRANCH  12  15
ENDBRANCH   1  11
BRANCH   7  29
ATOM     29  C   UNL     1      30.924  20.225  -4.543  1.00  0.00     0.044 C
ATOM     30  C   UNL     1      31.503  21.569  -4.900  1.00  0.00     0.016 C
ATOM     31  C   UNL     1      32.388  20.348  -4.980  1.00  0.00     0.013 C
BRANCH  31  32
ATOM     32  C   UNL     1      32.938  19.964  -6.325  1.00  0.00     0.085 C
BRANCH  32  33
ATOM     33  N   UNL     1      34.179  19.186  -6.263  1.00  0.00    -0.316 NA
ATOM     34  H   UNL     1      34.893  19.758  -6.731  1.00  0.00     0.122 HD
BRANCH  33  35
ATOM     35  C   UNL     1      34.120  17.875  -6.897  1.00  0.00     0.090 C
ATOM     36  G   UNL     1      32.721  17.246  -6.857  1.00  0.00     0.000 C
ENDBRANCH  33  35
ENDBRANCH  32  33
ENDBRANCH  31  32
ENDBRANCH   7  29
TORSDOF 2
ENDMDL
MODEL 4
REMARK VINA RESULT:      -7.9      3.144      5.890
REMARK SMILES N#C[C@H]1CCN(C(=O)[C@@H]2NC(=O)c3c[nH]c4ncc(nc34)[C@@H]3C[C@@H]3CNCC23CC3)C1
REMARK SMILES IDX 13 1 14 2 15 3 16 4 17 5 18 6 19 7 20 8 21 9 11 11 10 12
REMARK SMILES IDX 12 13 9 15 7 16 8 17 6 18 1 19 2 20 3 21 4 22 31 23 5 24
REMARK SMILES IDX 28 25 29 26 30 27 22 29 23 30 24 31 25 32 26 33 27 35
REMARK H PARENT 15 10 10 14 26 34
REMARK Flexibility Score:  106.900
ROOT
ATOM      1  C   UNL     1      33.277  10.850  -2.931  1.00  0.00     0.085 A
ATOM      2  C   UNL     1      34.113   9.933  -2.312  1.00  0.00     0.100 A
ATOM      3  N   UNL     1      33.574   8.671  -2.472  1.00  0.00    -0.344 N
ATOM      4  C   UNL     1      32.405   8.755  -3.175  1.00  0.00     0.156 A
ATOM      5  N   UNL     1      31.595   7.743  -3.548  1.00  0.00    -0.235 NA
ATOM      6  C   UNL     1      30.521   8.221  -4.247  1.00  0.00     0.137 A
ATOM      7  C   UNL     1      30.259   9.568  -4.546  1.00  0.00     0.063 A
ATOM      8  N   UNL     1      31.106  10.527  -4.129  1.00  0.00    -0.247 NA
ATOM      9  C   UNL     1      32.194  10.094  -3.448  1.00  0.00     0.120 A
ATOM     10  H   UNL     1      33.973   7.805  -2.137  1.00  0.00     0.168 HD
ENDROOT
BRANCH   1  11
ATOM     11  C   UNL     1      33.456  12.294  -3.050  1.00  0.00     0.255 C
ATOM     12  N   UNL     1      32.335  12.930  -3.510  1.00  0.00    -0.340 N
ATOM     13  O   UNL     1      34.502  12.870  -2.772  1.00  0.00    -0.269 OA
ATOM     14  H   UNL     1      31.569  12.333  -3.806  1.00  0.00     0.164 HD
BRANCH  12  15
ATOM     15  C   UNL     1      32.196  14.342  -3.778  1.00  0.00     0.179 C
BRANCH  15  16
ATOM     16  C   UNL     1      32.161  14.526  -5.319  1.00  0.00     0.245 C
ATOM     17  O   UNL     1      32.183  13.553  -6.081  1.00  0.00    -0.272 OA
BRANCH  16  18
ATOM     18  N   UNL     1      32.126  15.810  -5.826  1.00  0.00    -0.340 N
ATOM     19  N   UNL     1      30.958  19.524  -4.498  1.00  0.00    -0.198 NA
ATOM     20  C   UNL     1      31.169  18.826  -5.399  1.00  0.00     0.067 C
ATOM     21  C   UNL     1      31.454  17.970  -6.562  1.00  0.00     0.114 C
ATOM     22  C   UNL     1      32.962  17.793  -6.766  1.00  0.00     0.042 C
ATOM     23  C   UNL     1      30.970  16.537  -6.339  1.00  0.00     0.138 C
ATOM     24  C   UNL     1      33.315  16.642  -5.835  1.00  0.00     0.121 C
ENDBRANCH  16  18
ENDBRANCH  15  16
BRANCH  15  25
ATOM     25  C   UNL     1      30.919  14.902  -3.105  1.00  0.00     0.012 C
ATOM     26  C   UNL     1      31.045  15.258  -1.628  1.00  0.00     0.012 C
ATOM     27  C   UNL     1      30.955  16.353  -2.645  1.00  0.00     0.012 C
ATOM     28  G   UNL     1      29.558  14.341  -3.536  1.00  0.00     0.000 C
ENDBRANCH  15  25
ENDBRANCH  12  15
ENDBRANCH   1  11
BRANCH   7  29
ATOM     29  C   UNL     1      29.017  10.007  -5.292  1.00  0.00     0.044 C
ATOM     30  C   UNL     1      27.805   9.112  -5.328  1.00  0.00     0.016 C
ATOM     31  C   UNL     1      28.556   9.376  -6.612  1.00  0.00     0.013 C
BRANCH  31  32
ATOM     32  C   UNL     1      29.206   8.210  -7.300  1.00  0.00     0.085 C
BRANCH  32  33
ATOM     33  N   UNL     1      28.460   6.954  -7.181  1.00  0.00    -0.316 NA
ATOM     34  H   UNL     1      27.671   7.154  -6.553  1.00  0.00     0.122 HD
BRANCH  33  35
ATOM     35  C   UNL     1      29.222   5.829  -6.653  1.00  0.00     0.090 C
ATOM     36  G   UNL     1      28.619   5.236  -5.373  1.00  0.00     0.000 C
ENDBRANCH  33  35
ENDBRANCH  32  33
ENDBRANCH  31  32
ENDBRANCH   7  29
TORSDOF 2
ENDMDL
MODEL 5
REMARK VINA RESULT:      -7.7      2.440      5.336
REMARK SMILES N#C[C@H]1CCN(C(=O)[C@@H]2NC(=O)c3c[nH]c4ncc(nc34)[C@@H]3C[C@@H]3CNCC23CC3)C1
REMARK SMILES IDX 13 1 14 2 15 3 16 4 17 5 18 6 19 7 20 8 21 9 11 11 10 12
REMARK SMILES IDX 12 13 9 15 7 16 8 17 6 18 1 19 2 20 3 21 4 22 31 23 5 24
REMARK SMILES IDX 28 25 29 26 30 27 22 29 23 30 24 31 25 32 26 33 27 35
REMARK H PARENT 15 10 10 14 26 34
REMARK Flexibility Score:  106.900
ROOT
ATOM      1  C   UNL     1      33.589  13.000  -2.605  1.00  0.00     0.085 A
ATOM      2  C   UNL     1      34.953  13.202  -2.445  1.00  0.00     0.100 A
ATOM      3  N   UNL     1      35.577  11.970  -2.424  1.00  0.00    -0.344 N
ATOM      4  C   UNL     1      34.647  10.978  -2.560  1.00  0.00     0.156 A
ATOM      5  N   UNL     1      34.863   9.647  -2.603  1.00  0.00    -0.235 NA
ATOM      6  C   UNL     1      33.682   8.974  -2.756  1.00  0.00     0.137 A
ATOM      7  C   UNL     1      32.404   9.551  -2.848  1.00  0.00     0.063 A
ATOM      8  N   UNL     1      32.263  10.887  -2.782  1.00  0.00    -0.247 NA
ATOM      9  C   UNL     1      33.412  11.593  -2.650  1.00  0.00     0.120 A
ATOM     10  H   UNL     1      36.571  11.806  -2.334  1.00  0.00     0.168 HD
ENDROOT
BRANCH   1  11
ATOM     11  C   UNL     1      32.538  14.007  -2.716  1.00  0.00     0.255 C
ATOM     12  N   UNL     1      32.088  14.162  -3.999  1.00  0.00    -0.340 N
ATOM     13  O   UNL     1      32.112  14.647  -1.762  1.00  0.00    -0.269 OA
ATOM     14  H   UNL     1      32.594  13.653  -4.717  1.00  0.00     0.164 HD
BRANCH  12  15
ATOM     15  C   UNL     1      31.091  15.102  -4.454  1.00  0.00     0.179 C
BRANCH  15  16
ATOM     16  C   UNL     1      31.758  16.021  -5.512  1.00  0.00     0.245 C
ATOM     17  O   UNL     1      32.482  15.556  -6.398  1.00  0.00    -0.272 OA
BRANCH  16  18
ATOM     18  N   UNL     1      31.540  17.382  -5.429  1.00  0.00    -0.340 N
ATOM     19  N   UNL     1      33.846  20.788  -5.345  1.00  0.00    -0.198 NA
ATOM     20  C   UNL     1      32.834  20.281  -5.092  1.00  0.00     0.067 C
ATOM     21  C   UNL     1      31.531  19.671  -4.782  1.00  0.00     0.114 C
ATOM     22  C   UNL     1      30.690  19.482  -6.048  1.00  0.00     0.042 C
ATOM     23  C   UNL     1      31.688  18.242  -4.260  1.00  0.00     0.138 C
ATOM     24  C   UNL     1      31.177  18.152  -6.605  1.00  0.00     0.121 C
ENDBRANCH  16  18
ENDBRANCH  15  16
BRANCH  15  25
ATOM     25  C   UNL     1      29.863  14.357  -5.033  1.00  0.00     0.012 C
ATOM     26  C   UNL     1      28.511  15.023  -4.806  1.00  0.00     0.012 C
ATOM     27  C   UNL     1      29.115  15.032  -6.175  1.00  0.00     0.012 C
ATOM     28  G   UNL     1      29.858  12.823  -5.007  1.00  0.00     0.000 C
ENDBRANCH  15  25
ENDBRANCH  12  15
ENDBRANCH   1  11
BRANCH   7  29
ATOM     29  C   UNL     1      31.146   8.719  -2.973  1.00  0.00     0.044 C
ATOM     30  C   UNL     1      31.099   7.566  -3.943  1.00  0.00     0.016 C
ATOM     31  C   UNL     1      30.219   8.767  -4.193  1.00  0.00     0.013 C
BRANCH  31  32
ATOM     32  C   UNL     1      30.456   9.565  -5.444  1.00  0.00     0.085 C
BRANCH  32  33
ATOM     33  N   UNL     1      29.327   9.559  -6.379  1.00  0.00    -0.316 NA
ATOM     34  H   UNL     1      28.485   9.685  -5.804  1.00  0.00     0.122 HD
BRANCH  33  35
ATOM     35  C   UNL     1      29.190   8.347  -7.177  1.00  0.00     0.090 C
ATOM     36  G   UNL     1      28.056   7.431  -6.696  1.00  0.00     0.000 C
ENDBRANCH  33  35
ENDBRANCH  32  33
ENDBRANCH  31  32
ENDBRANCH   7  29
TORSDOF 2
ENDMDL
MODEL 6
REMARK VINA RESULT:      -7.7      2.391      5.401
REMARK SMILES N#C[C@H]1CCN(C(=O)[C@@H]2NC(=O)c3c[nH]c4ncc(nc34)[C@@H]3C[C@@H]3CNCC23CC3)C1
REMARK SMILES IDX 13 1 14 2 15 3 16 4 17 5 18 6 19 7 20 8 21 9 11 11 10 12
REMARK SMILES IDX 12 13 9 15 7 16 8 17 6 18 1 19 2 20 3 21 4 22 31 23 5 24
REMARK SMILES IDX 28 25 29 26 30 27 22 29 23 30 24 31 25 32 26 33 27 35
REMARK H PARENT 15 10 10 14 26 34
REMARK Flexibility Score:  106.900
ROOT
ATOM      1  C   UNL     1      33.590  13.225  -2.661  1.00  0.00     0.085 A
ATOM      2  C   UNL     1      34.946  13.477  -2.512  1.00  0.00     0.100 A
ATOM      3  N   UNL     1      35.613  12.269  -2.462  1.00  0.00    -0.344 N
ATOM      4  C   UNL     1      34.717  11.242  -2.569  1.00  0.00     0.156 A
ATOM      5  N   UNL     1      34.980   9.919  -2.579  1.00  0.00    -0.235 NA
ATOM      6  C   UNL     1      33.823   9.202  -2.710  1.00  0.00     0.137 A
ATOM      7  C   UNL     1      32.525   9.731  -2.811  1.00  0.00     0.063 A
ATOM      8  N   UNL     1      32.338  11.064  -2.779  1.00  0.00    -0.247 NA
ATOM      9  C   UNL     1      33.462  11.812  -2.670  1.00  0.00     0.120 A
ATOM     10  H   UNL     1      36.612  12.142  -2.372  1.00  0.00     0.168 HD
ENDROOT
BRANCH   1  11
ATOM     11  C   UNL     1      32.504  14.192  -2.793  1.00  0.00     0.255 C
ATOM     12  N   UNL     1      32.252  14.528  -4.096  1.00  0.00    -0.340 N
ATOM     13  O   UNL     1      31.892  14.655  -1.839  1.00  0.00    -0.269 OA
ATOM     14  H   UNL     1      32.897  14.160  -4.788  1.00  0.00     0.164 HD
BRANCH  12  15
ATOM     15  C   UNL     1      31.277  15.484  -4.565  1.00  0.00     0.179 C
BRANCH  15  16
ATOM     16  C   UNL     1      31.994  16.437  -5.559  1.00  0.00     0.245 C
ATOM     17  O   UNL     1      32.771  16.001  -6.416  1.00  0.00    -0.272 OA
BRANCH  16  18
ATOM     18  N   UNL     1      31.758  17.794  -5.454  1.00  0.00    -0.340 N
ATOM     19  N   UNL     1      28.666  20.373  -6.295  1.00  0.00    -0.198 NA
ATOM     20  C   UNL     1      29.804  20.227  -6.125  1.00  0.00     0.067 C
ATOM     21  C   UNL     1      31.249  20.076  -5.888  1.00  0.00     0.114 C
ATOM     22  C   UNL     1      31.551  19.881  -4.399  1.00  0.00     0.042 C
ATOM     23  C   UNL     1      31.791  18.792  -6.517  1.00  0.00     0.138 C
ATOM     24  C   UNL     1      31.363  18.385  -4.189  1.00  0.00     0.121 C
ENDBRANCH  16  18
ENDBRANCH  15  16
BRANCH  15  25
ATOM     25  C   UNL     1      30.078  14.763  -5.225  1.00  0.00     0.012 C
ATOM     26  C   UNL     1      28.697  15.307  -4.875  1.00  0.00     0.012 C
ATOM     27  C   UNL     1      29.262  15.554  -6.239  1.00  0.00     0.012 C
ATOM     28  G   UNL     1      30.158  13.244  -5.427  1.00  0.00     0.000 C
ENDBRANCH  15  25
ENDBRANCH  12  15
ENDBRANCH   1  11
BRANCH   7  29
ATOM     29  C   UNL     1      31.296   8.853  -2.910  1.00  0.00     0.044 C
ATOM     30  C   UNL     1      31.255   7.726  -3.910  1.00  0.00     0.016 C
ATOM     31  C   UNL     1      30.319   8.897  -4.091  1.00  0.00     0.013 C
BRANCH  31  32
ATOM     32  C   UNL     1      30.473   9.737  -5.327  1.00  0.00     0.085 C
BRANCH  32  33
ATOM     33  N   UNL     1      29.321   9.687  -6.232  1.00  0.00    -0.316 NA
ATOM     34  H   UNL     1      28.497   9.881  -5.649  1.00  0.00     0.122 HD
BRANCH  33  35
ATOM     35  C   UNL     1      29.133   8.418  -6.925  1.00  0.00     0.090 C
ATOM     36  G   UNL     1      27.812   7.724  -6.568  1.00  0.00     0.000 C
ENDBRANCH  33  35
ENDBRANCH  32  33
ENDBRANCH  31  32
ENDBRANCH   7  29
TORSDOF 2
ENDMDL
MODEL 7
REMARK VINA RESULT:      -7.6      0.834      1.329
REMARK SMILES N#C[C@H]1CCN(C(=O)[C@@H]2NC(=O)c3c[nH]c4ncc(nc34)[C@@H]3C[C@@H]3CNCC23CC3)C1
REMARK SMILES IDX 13 1 14 2 15 3 16 4 17 5 18 6 19 7 20 8 21 9 11 11 10 12
REMARK SMILES IDX 12 13 9 15 7 16 8 17 6 18 1 19 2 20 3 21 4 22 31 23 5 24
REMARK SMILES IDX 28 25 29 26 30 27 22 29 23 30 24 31 25 32 26 33 27 35
REMARK H PARENT 15 10 10 14 26 34
REMARK Flexibility Score:  106.900
ROOT
ATOM      1  C   UNL     1      28.354  14.150  -6.155  1.00  0.00     0.085 A
ATOM      2  C   UNL     1      27.023  13.764  -6.089  1.00  0.00     0.100 A
ATOM      3  N   UNL     1      26.951  12.557  -5.421  1.00  0.00    -0.344 N
ATOM      4  C   UNL     1      28.206  12.153  -5.060  1.00  0.00     0.156 A
ATOM      5  N   UNL     1      28.548  11.040  -4.379  1.00  0.00    -0.235 NA
ATOM      6  C   UNL     1      29.903  10.985  -4.200  1.00  0.00     0.137 A
ATOM      7  C   UNL     1      30.839  11.929  -4.655  1.00  0.00     0.063 A
ATOM      8  N   UNL     1      30.425  13.010  -5.341  1.00  0.00    -0.247 NA
ATOM      9  C   UNL     1      29.087  13.113  -5.524  1.00  0.00     0.120 A
ATOM     10  H   UNL     1      26.107  12.041  -5.212  1.00  0.00     0.168 HD
ENDROOT
BRANCH   1  11
ATOM     11  C   UNL     1      28.909  15.370  -6.736  1.00  0.00     0.255 C
ATOM     12  N   UNL     1      29.813  15.984  -5.912  1.00  0.00    -0.340 N
ATOM     13  O   UNL     1      28.592  15.797  -7.840  1.00  0.00    -0.269 OA
ATOM     14  H   UNL     1      29.910  15.593  -4.980  1.00  0.00     0.164 HD
BRANCH  12  15
ATOM     15  C   UNL     1      30.506  17.224  -6.169  1.00  0.00     0.179 C
BRANCH  15  16
ATOM     16  C   UNL     1      29.828  18.328  -5.311  1.00  0.00     0.245 C
ATOM     17  O   UNL     1      28.791  18.100  -4.678  1.00  0.00    -0.272 OA
BRANCH  16  18
ATOM     18  N   UNL     1      30.402  19.583  -5.286  1.00  0.00    -0.340 N
ATOM     19  N   UNL     1      34.209  21.140  -5.343  1.00  0.00    -0.198 NA
ATOM     20  C   UNL     1      33.092  21.289  -5.069  1.00  0.00     0.067 C
ATOM     21  C   UNL     1      31.677  21.514  -4.734  1.00  0.00     0.114 C
ATOM     22  C   UNL     1      30.843  21.779  -5.991  1.00  0.00     0.042 C
ATOM     23  C   UNL     1      31.029  20.257  -4.154  1.00  0.00     0.138 C
ATOM     24  C   UNL     1      30.499  20.383  -6.492  1.00  0.00     0.121 C
ENDBRANCH  16  18
ENDBRANCH  15  16
BRANCH  15  25
ATOM     25  C   UNL     1      32.012  17.086  -5.839  1.00  0.00     0.012 C
ATOM     26  C   UNL     1      32.771  16.019  -6.621  1.00  0.00     0.012 C
ATOM     27  C   UNL     1      33.001  17.465  -6.933  1.00  0.00     0.012 C
ATOM     28  G   UNL     1      32.466  17.290  -4.388  1.00  0.00     0.000 C
ENDBRANCH  15  25
ENDBRANCH  12  15
ENDBRANCH   1  11
BRANCH   7  29
ATOM     29  C   UNL     1      32.328  11.760  -4.445  1.00  0.00     0.044 C
ATOM     30  C   UNL     1      32.882  11.622  -3.050  1.00  0.00     0.016 C
ATOM     31  C   UNL     1      33.228  12.853  -3.855  1.00  0.00     0.013 C
BRANCH  31  32
ATOM     32  C   UNL     1      32.766  14.185  -3.338  1.00  0.00     0.085 C
BRANCH  32  33
ATOM     33  N   UNL     1      32.715  14.274  -1.875  1.00  0.00    -0.316 NA
ATOM     34  H   UNL     1      32.846  13.315  -1.531  1.00  0.00     0.122 HD
BRANCH  33  35
ATOM     35  C   UNL     1      31.476  14.817  -1.331  1.00  0.00     0.090 C
ATOM     36  G   UNL     1      30.527  15.357  -2.408  1.00  0.00     0.000 C
ENDBRANCH  33  35
ENDBRANCH  32  33
ENDBRANCH  31  32
ENDBRANCH   7  29
TORSDOF 2
ENDMDL
MODEL 8
REMARK VINA RESULT:      -7.6      2.332      5.292
REMARK SMILES N#C[C@H]1CCN(C(=O)[C@@H]2NC(=O)c3c[nH]c4ncc(nc34)[C@@H]3C[C@@H]3CNCC23CC3)C1
REMARK SMILES IDX 13 1 14 2 15 3 16 4 17 5 18 6 19 7 20 8 21 9 11 11 10 12
REMARK SMILES IDX 12 13 9 15 7 16 8 17 6 18 1 19 2 20 3 21 4 22 31 23 5 24
REMARK SMILES IDX 28 25 29 26 30 27 22 29 23 30 24 31 25 32 26 33 27 35
REMARK H PARENT 15 10 10 14 26 34
REMARK Flexibility Score:  106.900
ROOT
ATOM      1  C   UNL     1      33.649  13.293  -2.723  1.00  0.00     0.085 A
ATOM      2  C   UNL     1      35.000  13.544  -2.532  1.00  0.00     0.100 A
ATOM      3  N   UNL     1      35.656  12.336  -2.404  1.00  0.00    -0.344 N
ATOM      4  C   UNL     1      34.757  11.310  -2.501  1.00  0.00     0.156 A
ATOM      5  N   UNL     1      35.010   9.986  -2.444  1.00  0.00    -0.235 NA
ATOM      6  C   UNL     1      33.853   9.271  -2.589  1.00  0.00     0.137 A
ATOM      7  C   UNL     1      32.565   9.803  -2.764  1.00  0.00     0.063 A
ATOM      8  N   UNL     1      32.386  11.136  -2.797  1.00  0.00    -0.247 NA
ATOM      9  C   UNL     1      33.511  11.882  -2.675  1.00  0.00     0.120 A
ATOM     10  H   UNL     1      36.650  12.207  -2.269  1.00  0.00     0.168 HD
ENDROOT
BRANCH   1  11
ATOM     11  C   UNL     1      32.576  14.260  -2.940  1.00  0.00     0.255 C
ATOM     12  N   UNL     1      32.561  14.755  -4.216  1.00  0.00    -0.340 N
ATOM     13  O   UNL     1      31.782  14.594  -2.069  1.00  0.00    -0.269 OA
ATOM     14  H   UNL     1      33.335  14.482  -4.813  1.00  0.00     0.164 HD
BRANCH  12  15
ATOM     15  C   UNL     1      31.660  15.754  -4.740  1.00  0.00     0.179 C
BRANCH  15  16
ATOM     16  C   UNL     1      32.375  16.454  -5.928  1.00  0.00     0.245 C
ATOM     17  O   UNL     1      32.944  15.799  -6.808  1.00  0.00    -0.272 OA
BRANCH  16  18
ATOM     18  N   UNL     1      32.378  17.834  -5.970  1.00  0.00    -0.340 N
ATOM     19  N   UNL     1      30.978  20.908  -3.623  1.00  0.00    -0.198 NA
ATOM     20  C   UNL     1      31.315  20.550  -4.673  1.00  0.00     0.067 C
ATOM     21  C   UNL     1      31.762  20.131  -6.011  1.00  0.00     0.114 C
ATOM     22  C   UNL     1      33.287  19.997  -6.072  1.00  0.00     0.042 C
ATOM     23  C   UNL     1      31.282  18.719  -6.348  1.00  0.00     0.138 C
ATOM     24  C   UNL     1      33.542  18.590  -5.549  1.00  0.00     0.121 C
ENDBRANCH  16  18
ENDBRANCH  15  16
BRANCH  15  25
ATOM     25  C   UNL     1      30.322  15.109  -5.176  1.00  0.00     0.012 C
ATOM     26  C   UNL     1      29.067  15.667  -4.515  1.00  0.00     0.012 C
ATOM     27  C   UNL     1      29.347  15.985  -5.951  1.00  0.00     0.012 C
ATOM     28  G   UNL     1      30.298  13.604  -5.476  1.00  0.00     0.000 C
ENDBRANCH  15  25
ENDBRANCH  12  15
ENDBRANCH   1  11
BRANCH   7  29
ATOM     29  C   UNL     1      31.334   8.929  -2.872  1.00  0.00     0.044 C
ATOM     30  C   UNL     1      31.236   7.899  -3.969  1.00  0.00     0.016 C
ATOM     31  C   UNL     1      30.288   9.075  -3.984  1.00  0.00     0.013 C
BRANCH  31  32
ATOM     32  C   UNL     1      30.368  10.029  -5.143  1.00  0.00     0.085 C
BRANCH  32  33
ATOM     33  N   UNL     1      29.297   9.861  -6.130  1.00  0.00    -0.316 NA
ATOM     34  H   UNL     1      29.403  10.636  -6.795  1.00  0.00     0.122 HD
BRANCH  33  35
ATOM     35  C   UNL     1      27.945   9.876  -5.584  1.00  0.00     0.090 C
ATOM     36  G   UNL     1      27.204   8.545  -5.767  1.00  0.00     0.000 C
ENDBRANCH  33  35
ENDBRANCH  32  33
ENDBRANCH  31  32
ENDBRANCH   7  29
TORSDOF 2
ENDMDL
MODEL 9
REMARK VINA RESULT:      -7.5      2.179      3.669
REMARK SMILES N#C[C@H]1CCN(C(=O)[C@@H]2NC(=O)c3c[nH]c4ncc(nc34)[C@@H]3C[C@@H]3CNCC23CC3)C1
REMARK SMILES IDX 13 1 14 2 15 3 16 4 17 5 18 6 19 7 20 8 21 9 11 11 10 12
REMARK SMILES IDX 12 13 9 15 7 16 8 17 6 18 1 19 2 20 3 21 4 22 31 23 5 24
REMARK SMILES IDX 28 25 29 26 30 27 22 29 23 30 24 31 25 32 26 33 27 35
REMARK H PARENT 15 10 10 14 26 34
REMARK Flexibility Score:  106.900
ROOT
ATOM      1  C   UNL     1      29.112  11.169  -4.849  1.00  0.00     0.085 A
ATOM      2  C   UNL     1      28.136  10.740  -5.738  1.00  0.00     0.100 A
ATOM      3  N   UNL     1      28.310   9.388  -5.960  1.00  0.00    -0.344 N
ATOM      4  C   UNL     1      29.381   8.936  -5.240  1.00  0.00     0.156 A
ATOM      5  N   UNL     1      29.857   7.676  -5.178  1.00  0.00    -0.235 NA
ATOM      6  C   UNL     1      30.939   7.613  -4.343  1.00  0.00     0.137 A
ATOM      7  C   UNL     1      31.508   8.688  -3.640  1.00  0.00     0.063 A
ATOM      8  N   UNL     1      30.987   9.923  -3.762  1.00  0.00    -0.247 NA
ATOM      9  C   UNL     1      29.902  10.025  -4.566  1.00  0.00     0.120 A
ATOM     10  H   UNL     1      27.737   8.802  -6.552  1.00  0.00     0.168 HD
ENDROOT
BRANCH   1  11
ATOM     11  C   UNL     1      29.301  12.508  -4.299  1.00  0.00     0.255 C
ATOM     12  N   UNL     1      29.122  13.493  -5.232  1.00  0.00    -0.340 N
ATOM     13  O   UNL     1      29.596  12.722  -3.129  1.00  0.00    -0.269 OA
ATOM     14  H   UNL     1      28.987  13.185  -6.190  1.00  0.00     0.164 HD
BRANCH  12  15
ATOM     15  C   UNL     1      29.277  14.913  -5.025  1.00  0.00     0.179 C
BRANCH  15  16
ATOM     16  C   UNL     1      30.707  15.303  -5.489  1.00  0.00     0.245 C
ATOM     17  O   UNL     1      31.520  14.443  -5.848  1.00  0.00    -0.272 OA
BRANCH  16  18
ATOM     18  N   UNL     1      31.061  16.637  -5.475  1.00  0.00    -0.340 N
ATOM     19  N   UNL     1      29.165  20.246  -6.022  1.00  0.00    -0.198 NA
ATOM     20  C   UNL     1      30.158  19.648  -6.033  1.00  0.00     0.067 C
ATOM     21  C   UNL     1      31.437  18.919  -6.031  1.00  0.00     0.114 C
ATOM     22  C   UNL     1      31.917  18.643  -4.603  1.00  0.00     0.042 C
ATOM     23  C   UNL     1      31.285  17.515  -6.618  1.00  0.00     0.138 C
ATOM     24  C   UNL     1      31.189  17.361  -4.223  1.00  0.00     0.121 C
ENDBRANCH  16  18
ENDBRANCH  15  16
BRANCH  15  25
ATOM     25  C   UNL     1      28.190  15.700  -5.795  1.00  0.00     0.012 C
ATOM     26  C   UNL     1      26.804  15.721  -5.159  1.00  0.00     0.012 C
ATOM     27  C   UNL     1      27.644  16.960  -5.137  1.00  0.00     0.012 C
ATOM     28  G   UNL     1      28.212  15.669  -7.329  1.00  0.00     0.000 C
ENDBRANCH  15  25
ENDBRANCH  12  15
ENDBRANCH   1  11
BRANCH   7  29
ATOM     29  C   UNL     1      32.736   8.528  -2.770  1.00  0.00     0.044 C
ATOM     30  C   UNL     1      32.893   9.368  -1.528  1.00  0.00     0.016 C
ATOM     31  C   UNL     1      33.850   9.579  -2.678  1.00  0.00     0.013 C
BRANCH  31  32
ATOM     32  C   UNL     1      33.849  10.919  -3.357  1.00  0.00     0.085 C
BRANCH  32  33
ATOM     33  N   UNL     1      33.839  12.057  -2.433  1.00  0.00    -0.316 NA
ATOM     34  H   UNL     1      33.238  12.767  -2.869  1.00  0.00     0.122 HD
BRANCH  33  35
ATOM     35  C   UNL     1      35.147  12.638  -2.153  1.00  0.00     0.090 C
ATOM     36  G   UNL     1      35.899  11.920  -1.025  1.00  0.00     0.000 C
ENDBRANCH  33  35
ENDBRANCH  32  33
ENDBRANCH  31  32
ENDBRANCH   7  29
TORSDOF 2
ENDMDL
