MODEL 1
REMARK VINA RESULT:      -9.1      0.000      0.000
REMARK SMILES N#C[C@@H]1C[C@H]2CSCC3(CC3)c3cnc4[nH]cc(c4n3)C(=O)N[C@H](C3CC3)C(=O)N2C1
REMARK SMILES IDX 12 1 13 2 14 3 15 4 16 5 17 6 18 7 19 8 20 9 21 11 23 12
REMARK SMILES IDX 22 13 24 15 28 16 29 17 30 18 1 19 2 20 3 21 4 22 31 23 5 24
REMARK SMILES IDX 25 26 26 27 27 28 9 29 10 30 11 31 8 32 7 33 6 34
REMARK H PARENT 16 10 23 14
REMARK Flexibility Score:  122.900
ROOT
ATOM      1  C   UNL     1      30.327  10.337  -4.205  1.00  0.00     0.067 A
ATOM      2  C   UNL     1      29.203   9.534  -4.453  1.00  0.00     0.138 A
ATOM      3  N   UNL     1      28.026   9.948  -5.007  1.00  0.00    -0.235 NA
ATOM      4  C   UNL     1      28.066  11.271  -5.256  1.00  0.00     0.156 A
ATOM      5  N   UNL     1      27.052  12.041  -5.755  1.00  0.00    -0.344 N
ATOM      6  C   UNL     1      27.445  13.360  -5.786  1.00  0.00     0.100 A
ATOM      7  C   UNL     1      28.753  13.441  -5.325  1.00  0.00     0.085 A
ATOM      8  C   UNL     1      29.144  12.110  -5.023  1.00  0.00     0.120 A
ATOM      9  N   UNL     1      30.321  11.652  -4.527  1.00  0.00    -0.246 NA
ATOM     10  H   UNL     1      26.144  11.680  -6.012  1.00  0.00     0.168 HD
ENDROOT
BRANCH   7  11
ATOM     11  C   UNL     1      29.530  14.654  -5.114  1.00  0.00     0.255 C
ATOM     12  N   UNL     1      30.759  14.629  -5.717  1.00  0.00    -0.340 N
ATOM     13  O   UNL     1      29.136  15.582  -4.416  1.00  0.00    -0.269 OA
ATOM     14  H   UNL     1      30.992  13.822  -6.297  1.00  0.00     0.164 HD
BRANCH  12  15
ATOM     15  C   UNL     1      31.833  15.560  -5.429  1.00  0.00     0.175 C
BRANCH  15  16
ATOM     16  C   UNL     1      31.365  16.892  -6.078  1.00  0.00     0.245 C
ATOM     17  O   UNL     1      30.613  16.905  -7.059  1.00  0.00    -0.272 OA
BRANCH  16  18
ATOM     18  N   UNL     1      31.943  18.070  -5.633  1.00  0.00    -0.336 N
ATOM     19  N   UNL     1      30.258  21.639  -6.228  1.00  0.00    -0.198 NA
ATOM     20  C   UNL     1      31.027  21.039  -5.601  1.00  0.00     0.067 C
ATOM     21  C   UNL     1      32.007  20.285  -4.802  1.00  0.00     0.114 C
ATOM     22  C   UNL     1      33.293  20.031  -5.590  1.00  0.00     0.046 C
ATOM     23  C   UNL     1      31.503  18.876  -4.502  1.00  0.00     0.138 C
ATOM     24  C   UNL     1      33.004  18.746  -6.391  1.00  0.00     0.096 C
ATOM     25  G   UNL     1      34.272  17.900  -6.669  1.00  0.00     0.000 C
ENDBRANCH  16  18
ENDBRANCH  15  16
BRANCH  15  26
ATOM     26  C   UNL     1      32.105  15.576  -3.947  1.00  0.00     0.021 C
ATOM     27  C   UNL     1      33.495  15.602  -3.358  1.00  0.00     0.006 C
ATOM     28  C   UNL     1      32.633  14.378  -3.194  1.00  0.00     0.006 C
ENDBRANCH  15  26
ENDBRANCH  12  15
ENDBRANCH   7  11
BRANCH   1  29
ATOM     29  C   UNL     1      31.592   9.787  -3.543  1.00  0.00     0.023 C
ATOM     30  C   UNL     1      31.407   8.887  -2.324  1.00  0.00     0.015 C
ATOM     31  C   UNL     1      31.842   8.286  -3.622  1.00  0.00     0.015 C
BRANCH  29  32
ATOM     32  C   UNL     1      32.791  10.719  -3.541  1.00  0.00     0.083 C
BRANCH  32  33
ATOM     33  S   UNL     1      34.215  10.121  -2.581  1.00  0.00    -0.159 SA
BRANCH  33  34
ATOM     34  C   UNL     1      35.113  11.696  -2.306  1.00  0.00     0.094 C
ATOM     35  G   UNL     1      35.933  11.758  -0.993  1.00  0.00     0.000 C
ENDBRANCH  33  34
ENDBRANCH  32  33
ENDBRANCH  29  32
ENDBRANCH   1  29
TORSDOF 1
ENDMDL
MODEL 2
REMARK VINA RESULT:      -8.9      2.003      4.282
REMARK SMILES N#C[C@@H]1C[C@H]2CSCC3(CC3)c3cnc4[nH]cc(c4n3)C(=O)N[C@H](C3CC3)C(=O)N2C1
REMARK SMILES IDX 12 1 13 2 14 3 15 4 16 5 17 6 18 7 19 8 20 9 21 11 23 12
REMARK SMILES IDX 22 13 24 15 28 16 29 17 30 18 1 19 2 20 3 21 4 22 31 23 5 24
REMARK SMILES IDX 25 26 26 27 27 28 9 29 10 30 11 31 8 32 7 33 6 34
REMARK H PARENT 16 10 23 14
REMARK Flexibility Score:  122.900
ROOT
ATOM      1  C   UNL     1      33.900  11.302  -2.548  1.00  0.00     0.067 A
ATOM      2  C   UNL     1      35.203  11.792  -2.366  1.00  0.00     0.138 A
ATOM      3  N   UNL     1      35.578  13.105  -2.383  1.00  0.00    -0.235 NA
ATOM      4  C   UNL     1      34.516  13.891  -2.646  1.00  0.00     0.156 A
ATOM      5  N   UNL     1      34.522  15.250  -2.795  1.00  0.00    -0.344 N
ATOM      6  C   UNL     1      33.261  15.682  -3.142  1.00  0.00     0.100 A
ATOM      7  C   UNL     1      32.416  14.581  -3.188  1.00  0.00     0.085 A
ATOM      8  C   UNL     1      33.214  13.460  -2.842  1.00  0.00     0.120 A
ATOM      9  N   UNL     1      32.866  12.151  -2.756  1.00  0.00    -0.246 NA
ATOM     10  H   UNL     1      35.348  15.824  -2.706  1.00  0.00     0.168 HD
ENDROOT
BRANCH   7  11
ATOM     11  C   UNL     1      31.017  14.572  -3.594  1.00  0.00     0.255 C
ATOM     12  N   UNL     1      30.824  14.911  -4.907  1.00  0.00    -0.340 N
ATOM     13  O   UNL     1      30.101  14.334  -2.814  1.00  0.00    -0.269 OA
ATOM     14  H   UNL     1      31.649  15.072  -5.486  1.00  0.00     0.164 HD
BRANCH  12  15
ATOM     15  C   UNL     1      29.542  15.264  -5.483  1.00  0.00     0.175 C
BRANCH  15  16
ATOM     16  C   UNL     1      29.842  16.532  -6.330  1.00  0.00     0.245 C
ATOM     17  O   UNL     1      29.513  16.608  -7.519  1.00  0.00    -0.272 OA
BRANCH  16  18
ATOM     18  N   UNL     1      30.635  17.518  -5.765  1.00  0.00    -0.336 N
ATOM     19  N   UNL     1      29.736  21.398  -6.026  1.00  0.00    -0.198 NA
ATOM     20  C   UNL     1      30.346  20.595  -5.453  1.00  0.00     0.067 C
ATOM     21  C   UNL     1      31.126  19.584  -4.721  1.00  0.00     0.114 C
ATOM     22  C   UNL     1      32.356  19.144  -5.517  1.00  0.00     0.046 C
ATOM     23  C   UNL     1      30.335  18.288  -4.566  1.00  0.00     0.138 C
ATOM     24  C   UNL     1      31.835  18.027  -6.442  1.00  0.00     0.096 C
ATOM     25  G   UNL     1      32.910  16.967  -6.789  1.00  0.00     0.000 C
ENDBRANCH  16  18
ENDBRANCH  15  16
BRANCH  15  26
ATOM     26  C   UNL     1      28.968  14.073  -6.207  1.00  0.00     0.021 C
ATOM     27  C   UNL     1      27.561  14.033  -6.754  1.00  0.00     0.006 C
ATOM     28  C   UNL     1      27.941  13.152  -5.592  1.00  0.00     0.006 C
ENDBRANCH  15  26
ENDBRANCH  12  15
ENDBRANCH   7  11
BRANCH   1  29
ATOM     29  C   UNL     1      33.585   9.805  -2.549  1.00  0.00     0.023 C
ATOM     30  C   UNL     1      34.674   8.862  -2.046  1.00  0.00     0.015 C
ATOM     31  C   UNL     1      33.463   9.103  -1.202  1.00  0.00     0.015 C
BRANCH  29  32
ATOM     32  C   UNL     1      32.722   9.316  -3.699  1.00  0.00     0.083 C
BRANCH  32  33
ATOM     33  S   UNL     1      31.068   8.736  -3.213  1.00  0.00    -0.159 SA
BRANCH  33  34
ATOM     34  C   UNL     1      30.033  10.101  -3.868  1.00  0.00     0.094 C
ATOM     35  G   UNL     1      30.728  10.994  -4.927  1.00  0.00     0.000 C
ENDBRANCH  33  34
ENDBRANCH  32  33
ENDBRANCH  29  32
ENDBRANCH   1  29
TORSDOF 1
ENDMDL
MODEL 3
REMARK VINA RESULT:      -8.8      2.000      3.503
REMARK SMILES N#C[C@@H]1C[C@H]2CSCC3(CC3)c3cnc4[nH]cc(c4n3)C(=O)N[C@H](C3CC3)C(=O)N2C1
REMARK SMILES IDX 12 1 13 2 14 3 15 4 16 5 17 6 18 7 19 8 20 9 21 11 23 12
REMARK SMILES IDX 22 13 24 15 28 16 29 17 30 18 1 19 2 20 3 21 4 22 31 23 5 24
REMARK SMILES IDX 25 26 26 27 27 28 9 29 10 30 11 31 8 32 7 33 6 34
REMARK H PARENT 16 10 23 14
REMARK Flexibility Score:  122.900
ROOT
ATOM      1  C   UNL     1      31.361   9.164  -3.858  1.00  0.00     0.067 A
ATOM      2  C   UNL     1      31.205   7.829  -4.264  1.00  0.00     0.138 A
ATOM      3  N   UNL     1      30.231   7.347  -5.089  1.00  0.00    -0.235 NA
ATOM      4  C   UNL     1      29.387   8.337  -5.443  1.00  0.00     0.156 A
ATOM      5  N   UNL     1      28.263   8.216  -6.212  1.00  0.00    -0.344 N
ATOM      6  C   UNL     1      27.617   9.430  -6.279  1.00  0.00     0.100 A
ATOM      7  C   UNL     1      28.356  10.362  -5.562  1.00  0.00     0.085 A
ATOM      8  C   UNL     1      29.488   9.665  -5.066  1.00  0.00     0.120 A
ATOM      9  N   UNL     1      30.507  10.121  -4.293  1.00  0.00    -0.246 NA
ATOM     10  H   UNL     1      27.949   7.348  -6.621  1.00  0.00     0.168 HD
ENDROOT
BRANCH   7  11
ATOM     11  C   UNL     1      27.996  11.750  -5.303  1.00  0.00     0.255 C
ATOM     12  N   UNL     1      28.917  12.651  -5.766  1.00  0.00    -0.340 N
ATOM     13  O   UNL     1      26.988  12.069  -4.681  1.00  0.00    -0.269 OA
ATOM     14  H   UNL     1      29.715  12.293  -6.292  1.00  0.00     0.164 HD
BRANCH  12  15
ATOM     15  C   UNL     1      28.955  14.050  -5.389  1.00  0.00     0.175 C
BRANCH  15  16
ATOM     16  C   UNL     1      30.420  14.481  -5.678  1.00  0.00     0.245 C
ATOM     17  O   UNL     1      31.314  13.649  -5.865  1.00  0.00    -0.272 OA
BRANCH  16  18
ATOM     18  N   UNL     1      30.738  15.825  -5.561  1.00  0.00    -0.336 N
ATOM     19  N   UNL     1      34.002  17.407  -7.227  1.00  0.00    -0.198 NA
ATOM     20  C   UNL     1      32.953  17.628  -6.782  1.00  0.00     0.067 C
ATOM     21  C   UNL     1      31.626  17.918  -6.219  1.00  0.00     0.114 C
ATOM     22  C   UNL     1      31.641  17.849  -4.691  1.00  0.00     0.046 C
ATOM     23  C   UNL     1      30.618  16.836  -6.601  1.00  0.00     0.138 C
ATOM     24  C   UNL     1      31.416  16.358  -4.372  1.00  0.00     0.096 C
ATOM     25  G   UNL     1      30.688  16.123  -3.024  1.00  0.00     0.000 C
ENDBRANCH  16  18
ENDBRANCH  15  16
BRANCH  15  26
ATOM     26  C   UNL     1      27.864  14.799  -6.109  1.00  0.00     0.021 C
ATOM     27  C   UNL     1      27.389  16.173  -5.700  1.00  0.00     0.006 C
ATOM     28  C   UNL     1      26.478  14.985  -5.538  1.00  0.00     0.006 C
ENDBRANCH  15  26
ENDBRANCH  12  15
ENDBRANCH   7  11
BRANCH   1  29
ATOM     29  C   UNL     1      32.468   9.601  -2.898  1.00  0.00     0.023 C
ATOM     30  C   UNL     1      32.390   9.088  -1.462  1.00  0.00     0.015 C
ATOM     31  C   UNL     1      33.428   8.534  -2.385  1.00  0.00     0.015 C
BRANCH  29  32
ATOM     32  C   UNL     1      32.997  11.009  -3.103  1.00  0.00     0.083 C
BRANCH  32  33
ATOM     33  S   UNL     1      34.725  11.253  -2.587  1.00  0.00    -0.159 SA
BRANCH  33  34
ATOM     34  C   UNL     1      34.787  13.084  -2.497  1.00  0.00     0.094 C
ATOM     35  G   UNL     1      33.451  13.798  -2.824  1.00  0.00     0.000 C
ENDBRANCH  33  34
ENDBRANCH  32  33
ENDBRANCH  29  32
ENDBRANCH   1  29
TORSDOF 1
ENDMDL
MODEL 4
REMARK VINA RESULT:      -8.7      2.134      4.349
REMARK SMILES N#C[C@@H]1C[C@H]2CSCC3(CC3)c3cnc4[nH]cc(c4n3)C(=O)N[C@H](C3CC3)C(=O)N2C1
REMARK SMILES IDX 12 1 13 2 14 3 15 4 16 5 17 6 18 7 19 8 20 9 21 11 23 12
REMARK SMILES IDX 22 13 24 15 28 16 29 17 30 18 1 19 2 20 3 21 4 22 31 23 5 24
REMARK SMILES IDX 25 26 26 27 27 28 9 29 10 30 11 31 8 32 7 33 6 34
REMARK H PARENT 16 10 23 14
REMARK Flexibility Score:  122.900
ROOT
ATOM      1  C   UNL     1      32.715  11.087  -3.274  1.00  0.00     0.067 A
ATOM      2  C   UNL     1      34.046  10.777  -2.953  1.00  0.00     0.138 A
ATOM      3  N   UNL     1      35.021  11.671  -2.617  1.00  0.00    -0.235 NA
ATOM      4  C   UNL     1      34.542  12.929  -2.676  1.00  0.00     0.156 A
ATOM      5  N   UNL     1      35.245  14.082  -2.460  1.00  0.00    -0.344 N
ATOM      6  C   UNL     1      34.433  15.169  -2.696  1.00  0.00     0.100 A
ATOM      7  C   UNL     1      33.169  14.707  -3.042  1.00  0.00     0.085 A
ATOM      8  C   UNL     1      33.244  13.291  -2.994  1.00  0.00     0.120 A
ATOM      9  N   UNL     1      32.283  12.370  -3.263  1.00  0.00    -0.246 NA
ATOM     10  H   UNL     1      36.223  14.109  -2.212  1.00  0.00     0.168 HD
ENDROOT
BRANCH   7  11
ATOM     11  C   UNL     1      32.028  15.514  -3.453  1.00  0.00     0.255 C
ATOM     12  N   UNL     1      31.796  15.488  -4.803  1.00  0.00    -0.340 N
ATOM     13  O   UNL     1      31.376  16.191  -2.666  1.00  0.00    -0.269 OA
ATOM     14  H   UNL     1      32.378  14.878  -5.377  1.00  0.00     0.164 HD
BRANCH  12  15
ATOM     15  C   UNL     1      30.929  16.415  -5.503  1.00  0.00     0.175 C
BRANCH  15  16
ATOM     16  C   UNL     1      31.910  17.386  -6.218  1.00  0.00     0.245 C
ATOM     17  O   UNL     1      32.656  17.001  -7.124  1.00  0.00    -0.272 OA
BRANCH  16  18
ATOM     18  N   UNL     1      32.047  18.666  -5.703  1.00  0.00    -0.336 N
ATOM     19  N   UNL     1      29.261  21.481  -6.197  1.00  0.00    -0.198 NA
ATOM     20  C   UNL     1      30.178  21.144  -5.573  1.00  0.00     0.067 C
ATOM     21  C   UNL     1      31.342  20.726  -4.776  1.00  0.00     0.114 C
ATOM     22  C   UNL     1      32.651  20.962  -5.532  1.00  0.00     0.046 C
ATOM     23  C   UNL     1      31.342  19.216  -4.554  1.00  0.00     0.138 C
ATOM     24  C   UNL     1      32.828  19.698  -6.396  1.00  0.00     0.096 C
ATOM     25  G   UNL     1      34.312  19.346  -6.670  1.00  0.00     0.000 C
ENDBRANCH  16  18
ENDBRANCH  15  16
BRANCH  15  26
ATOM     26  C   UNL     1      29.966  15.648  -6.372  1.00  0.00     0.021 C
ATOM     27  C   UNL     1      28.466  15.704  -6.200  1.00  0.00     0.006 C
ATOM     28  C   UNL     1      29.211  14.432  -5.890  1.00  0.00     0.006 C
ENDBRANCH  15  26
ENDBRANCH  12  15
ENDBRANCH   7  11
BRANCH   1  29
ATOM     29  C   UNL     1      31.702  10.014  -3.674  1.00  0.00     0.023 C
ATOM     30  C   UNL     1      32.120   8.556  -3.494  1.00  0.00     0.015 C
ATOM     31  C   UNL     1      31.105   9.150  -2.570  1.00  0.00     0.015 C
BRANCH  29  32
ATOM     32  C   UNL     1      30.837  10.343  -4.879  1.00  0.00     0.083 C
BRANCH  32  33
ATOM     33  S   UNL     1      29.105  10.733  -4.486  1.00  0.00    -0.159 SA
BRANCH  33  34
ATOM     34  C   UNL     1      28.246   9.441  -5.464  1.00  0.00     0.094 C
ATOM     35  G   UNL     1      29.157   8.297  -5.976  1.00  0.00     0.000 C
ENDBRANCH  33  34
ENDBRANCH  32  33
ENDBRANCH  29  32
ENDBRANCH   1  29
TORSDOF 1
ENDMDL
MODEL 5
REMARK VINA RESULT:      -8.7      2.788      5.497
REMARK SMILES N#C[C@@H]1C[C@H]2CSCC3(CC3)c3cnc4[nH]cc(c4n3)C(=O)N[C@H](C3CC3)C(=O)N2C1
REMARK SMILES IDX 12 1 13 2 14 3 15 4 16 5 17 6 18 7 19 8 20 9 21 11 23 12
REMARK SMILES IDX 22 13 24 15 28 16 29 17 30 18 1 19 2 20 3 21 4 22 31 23 5 24
REMARK SMILES IDX 25 26 26 27 27 28 9 29 10 30 11 31 8 32 7 33 6 34
REMARK H PARENT 16 10 23 14
REMARK Flexibility Score:  122.900
ROOT
ATOM      1  C   UNL     1      31.164   9.123  -4.119  1.00  0.00     0.067 A
ATOM      2  C   UNL     1      31.963   8.482  -3.159  1.00  0.00     0.138 A
ATOM      3  N   UNL     1      32.966   9.057  -2.433  1.00  0.00    -0.235 NA
ATOM      4  C   UNL     1      33.124  10.345  -2.794  1.00  0.00     0.156 A
ATOM      5  N   UNL     1      34.067  11.216  -2.323  1.00  0.00    -0.344 N
ATOM      6  C   UNL     1      33.967  12.414  -2.994  1.00  0.00     0.100 A
ATOM      7  C   UNL     1      32.916  12.325  -3.897  1.00  0.00     0.085 A
ATOM      8  C   UNL     1      32.372  11.024  -3.738  1.00  0.00     0.120 A
ATOM      9  N   UNL     1      31.341  10.436  -4.398  1.00  0.00    -0.246 NA
ATOM     10  H   UNL     1      34.754  10.979  -1.621  1.00  0.00     0.168 HD
ENDROOT
BRANCH   7  11
ATOM     11  C   UNL     1      32.512  13.333  -4.869  1.00  0.00     0.255 C
ATOM     12  N   UNL     1      32.459  14.600  -4.353  1.00  0.00    -0.340 N
ATOM     13  O   UNL     1      32.199  13.055  -6.022  1.00  0.00    -0.269 OA
ATOM     14  H   UNL     1      32.758  14.738  -3.388  1.00  0.00     0.164 HD
BRANCH  12  15
ATOM     15  C   UNL     1      31.814  15.724  -5.005  1.00  0.00     0.175 C
BRANCH  15  16
ATOM     16  C   UNL     1      30.323  15.600  -4.588  1.00  0.00     0.245 C
ATOM     17  O   UNL     1      29.978  15.627  -3.401  1.00  0.00    -0.272 OA
BRANCH  16  18
ATOM     18  N   UNL     1      29.396  15.293  -5.572  1.00  0.00    -0.336 N
ATOM     19  N   UNL     1      26.192  17.568  -6.277  1.00  0.00    -0.198 NA
ATOM     20  C   UNL     1      26.899  16.753  -6.705  1.00  0.00     0.067 C
ATOM     21  C   UNL     1      27.788  15.718  -7.255  1.00  0.00     0.114 C
ATOM     22  C   UNL     1      27.493  14.347  -6.644  1.00  0.00     0.046 C
ATOM     23  C   UNL     1      29.238  15.969  -6.852  1.00  0.00     0.138 C
ATOM     24  C   UNL     1      28.319  14.321  -5.344  1.00  0.00     0.096 C
ATOM     25  G   UNL     1      28.777  12.897  -4.937  1.00  0.00     0.000 C
ENDBRANCH  16  18
ENDBRANCH  15  16
BRANCH  15  26
ATOM     26  C   UNL     1      32.528  16.999  -4.637  1.00  0.00     0.021 C
ATOM     27  C   UNL     1      31.899  18.367  -4.758  1.00  0.00     0.006 C
ATOM     28  C   UNL     1      33.039  17.982  -5.664  1.00  0.00     0.006 C
ENDBRANCH  15  26
ENDBRANCH  12  15
ENDBRANCH   7  11
BRANCH   1  29
ATOM     29  C   UNL     1      30.086   8.381  -4.910  1.00  0.00     0.023 C
ATOM     30  C   UNL     1      28.713   9.041  -5.009  1.00  0.00     0.015 C
ATOM     31  C   UNL     1      29.600   9.006  -6.212  1.00  0.00     0.015 C
BRANCH  29  32
ATOM     32  C   UNL     1      30.120   6.866  -4.805  1.00  0.00     0.083 C
BRANCH  32  33
ATOM     33  S   UNL     1      29.243   5.993  -6.137  1.00  0.00    -0.159 SA
BRANCH  33  34
ATOM     34  C   UNL     1      27.815   5.318  -5.206  1.00  0.00     0.094 C
ATOM     35  G   UNL     1      26.443   5.480  -5.908  1.00  0.00     0.000 C
ENDBRANCH  33  34
ENDBRANCH  32  33
ENDBRANCH  29  32
ENDBRANCH   1  29
TORSDOF 1
ENDMDL
MODEL 6
REMARK VINA RESULT:      -8.6      2.674      5.900
REMARK SMILES N#C[C@@H]1C[C@H]2CSCC3(CC3)c3cnc4[nH]cc(c4n3)C(=O)N[C@H](C3CC3)C(=O)N2C1
REMARK SMILES IDX 12 1 13 2 14 3 15 4 16 5 17 6 18 7 19 8 20 9 21 11 23 12
REMARK SMILES IDX 22 13 24 15 28 16 29 17 30 18 1 19 2 20 3 21 4 22 31 23 5 24
REMARK SMILES IDX 25 26 26 27 27 28 9 29 10 30 11 31 8 32 7 33 6 34
REMARK H PARENT 16 10 23 14
REMARK Flexibility Score:  122.900
ROOT
ATOM      1  C   UNL     1      32.477  11.090  -3.413  1.00  0.00     0.067 A
ATOM      2  C   UNL     1      33.672  10.835  -2.722  1.00  0.00     0.138 A
ATOM      3  N   UNL     1      34.585  11.768  -2.322  1.00  0.00    -0.235 NA
ATOM      4  C   UNL     1      34.203  12.996  -2.723  1.00  0.00     0.156 A
ATOM      5  N   UNL     1      34.895  14.164  -2.551  1.00  0.00    -0.344 N
ATOM      6  C   UNL     1      34.224  15.193  -3.172  1.00  0.00     0.100 A
ATOM      7  C   UNL     1      33.059  14.686  -3.731  1.00  0.00     0.085 A
ATOM      8  C   UNL     1      33.042  13.303  -3.413  1.00  0.00     0.120 A
ATOM      9  N   UNL     1      32.126  12.356  -3.740  1.00  0.00    -0.246 NA
ATOM     10  H   UNL     1      35.784  14.229  -2.077  1.00  0.00     0.168 HD
ENDROOT
BRANCH   7  11
ATOM     11  C   UNL     1      32.096  15.410  -4.550  1.00  0.00     0.255 C
ATOM     12  N   UNL     1      30.810  15.325  -4.089  1.00  0.00    -0.340 N
ATOM     13  O   UNL     1      32.409  15.993  -5.583  1.00  0.00    -0.269 OA
ATOM     14  H   UNL     1      30.648  14.836  -3.207  1.00  0.00     0.164 HD
BRANCH  12  15
ATOM     15  C   UNL     1      29.637  15.693  -4.857  1.00  0.00     0.175 C
BRANCH  15  16
ATOM     16  C   UNL     1      28.672  14.488  -4.679  1.00  0.00     0.245 C
ATOM     17  O   UNL     1      28.790  13.700  -3.735  1.00  0.00    -0.272 OA
BRANCH  16  18
ATOM     18  N   UNL     1      27.772  14.220  -5.698  1.00  0.00    -0.336 N
ATOM     19  N   UNL     1      28.042  15.929  -9.295  1.00  0.00    -0.198 NA
ATOM     20  C   UNL     1      27.600  15.045  -8.688  1.00  0.00     0.067 C
ATOM     21  C   UNL     1      27.032  13.921  -7.926  1.00  0.00     0.114 C
ATOM     22  C   UNL     1      25.839  14.367  -7.080  1.00  0.00     0.046 C
ATOM     23  C   UNL     1      28.022  13.410  -6.882  1.00  0.00     0.138 C
ATOM     24  C   UNL     1      26.469  14.893  -5.775  1.00  0.00     0.096 C
ATOM     25  G   UNL     1      25.551  14.720  -4.538  1.00  0.00     0.000 C
ENDBRANCH  16  18
ENDBRANCH  15  16
BRANCH  15  26
ATOM     26  C   UNL     1      29.140  17.043  -4.407  1.00  0.00     0.021 C
ATOM     27  C   UNL     1      28.256  17.927  -5.254  1.00  0.00     0.006 C
ATOM     28  C   UNL     1      29.674  18.343  -4.962  1.00  0.00     0.006 C
ENDBRANCH  15  26
ENDBRANCH  12  15
ENDBRANCH   7  11
BRANCH   1  29
ATOM     29  C   UNL     1      31.534   9.969  -3.852  1.00  0.00     0.023 C
ATOM     30  C   UNL     1      32.041   8.536  -3.716  1.00  0.00     0.015 C
ATOM     31  C   UNL     1      30.989   9.036  -2.778  1.00  0.00     0.015 C
BRANCH  29  32
ATOM     32  C   UNL     1      30.655  10.282  -5.051  1.00  0.00     0.083 C
BRANCH  32  33
ATOM     33  S   UNL     1      28.877  10.382  -4.682  1.00  0.00    -0.159 SA
BRANCH  33  34
ATOM     34  C   UNL     1      28.257   8.954  -5.650  1.00  0.00     0.094 C
ATOM     35  G   UNL     1      29.257   8.389  -6.690  1.00  0.00     0.000 C
ENDBRANCH  33  34
ENDBRANCH  32  33
ENDBRANCH  29  32
ENDBRANCH   1  29
TORSDOF 1
ENDMDL
MODEL 7
REMARK VINA RESULT:      -8.5      1.783      3.016
REMARK SMILES N#C[C@@H]1C[C@H]2CSCC3(CC3)c3cnc4[nH]cc(c4n3)C(=O)N[C@H](C3CC3)C(=O)N2C1
REMARK SMILES IDX 12 1 13 2 14 3 15 4 16 5 17 6 18 7 19 8 20 9 21 11 23 12
REMARK SMILES IDX 22 13 24 15 28 16 29 17 30 18 1 19 2 20 3 21 4 22 31 23 5 24
REMARK SMILES IDX 25 26 26 27 27 28 9 29 10 30 11 31 8 32 7 33 6 34
REMARK H PARENT 16 10 23 14
REMARK Flexibility Score:  122.900
ROOT
ATOM      1  C   UNL     1      30.960  12.209  -4.440  1.00  0.00     0.067 A
ATOM      2  C   UNL     1      30.586  10.869  -4.629  1.00  0.00     0.138 A
ATOM      3  N   UNL     1      29.373  10.428  -5.076  1.00  0.00    -0.235 NA
ATOM      4  C   UNL     1      28.543  11.470  -5.278  1.00  0.00     0.156 A
ATOM      5  N   UNL     1      27.234  11.408  -5.670  1.00  0.00    -0.344 N
ATOM      6  C   UNL     1      26.696  12.675  -5.683  1.00  0.00     0.100 A
ATOM      7  C   UNL     1      27.687  13.578  -5.322  1.00  0.00     0.085 A
ATOM      8  C   UNL     1      28.857  12.807  -5.100  1.00  0.00     0.120 A
ATOM      9  N   UNL     1      30.094  13.213  -4.713  1.00  0.00    -0.246 NA
ATOM     10  H   UNL     1      26.744  10.547  -5.868  1.00  0.00     0.168 HD
ENDROOT
BRANCH   7  11
ATOM     11  C   UNL     1      27.531  15.013  -5.128  1.00  0.00     0.255 C
ATOM     12  N   UNL     1      28.625  15.741  -5.512  1.00  0.00    -0.340 N
ATOM     13  O   UNL     1      26.531  15.510  -4.618  1.00  0.00    -0.269 OA
ATOM     14  H   UNL     1      29.403  15.243  -5.946  1.00  0.00     0.164 HD
BRANCH  12  15
ATOM     15  C   UNL     1      28.852  17.129  -5.160  1.00  0.00     0.175 C
BRANCH  15  16
ATOM     16  C   UNL     1      30.267  17.131  -4.517  1.00  0.00     0.245 C
ATOM     17  O   UNL     1      30.546  16.395  -3.564  1.00  0.00    -0.272 OA
BRANCH  16  18
ATOM     18  N   UNL     1      31.167  18.100  -4.931  1.00  0.00    -0.336 N
ATOM     19  N   UNL     1      29.995  21.626  -6.390  1.00  0.00    -0.198 NA
ATOM     20  C   UNL     1      30.871  21.032  -5.915  1.00  0.00     0.067 C
ATOM     21  C   UNL     1      31.989  20.286  -5.316  1.00  0.00     0.114 C
ATOM     22  C   UNL     1      32.638  19.343  -6.330  1.00  0.00     0.046 C
ATOM     23  C   UNL     1      31.494  19.334  -4.230  1.00  0.00     0.138 C
ATOM     24  C   UNL     1      31.787  18.061  -6.262  1.00  0.00     0.096 C
ATOM     25  G   UNL     1      32.588  16.775  -6.590  1.00  0.00     0.000 C
ENDBRANCH  16  18
ENDBRANCH  15  16
BRANCH  15  26
ATOM     26  C   UNL     1      28.647  17.999  -6.373  1.00  0.00     0.021 C
ATOM     27  C   UNL     1      27.661  19.142  -6.419  1.00  0.00     0.006 C
ATOM     28  C   UNL     1      27.422  17.910  -7.252  1.00  0.00     0.006 C
ENDBRANCH  15  26
ENDBRANCH  12  15
ENDBRANCH   7  11
BRANCH   1  29
ATOM     29  C   UNL     1      32.335  12.603  -3.898  1.00  0.00     0.023 C
ATOM     30  C   UNL     1      32.840  14.005  -4.226  1.00  0.00     0.015 C
ATOM     31  C   UNL     1      32.396  13.691  -2.833  1.00  0.00     0.015 C
BRANCH  29  32
ATOM     32  C   UNL     1      33.366  11.488  -3.852  1.00  0.00     0.083 C
BRANCH  32  33
ATOM     33  S   UNL     1      34.468  11.533  -2.405  1.00  0.00    -0.159 SA
BRANCH  33  34
ATOM     34  C   UNL     1      34.480   9.758  -1.945  1.00  0.00     0.094 C
ATOM     35  G   UNL     1      33.172   8.992  -2.268  1.00  0.00     0.000 C
ENDBRANCH  33  34
ENDBRANCH  32  33
ENDBRANCH  29  32
ENDBRANCH   1  29
TORSDOF 1
ENDMDL
MODEL 8
REMARK VINA RESULT:      -8.5      2.098      4.394
REMARK SMILES N#C[C@@H]1C[C@H]2CSCC3(CC3)c3cnc4[nH]cc(c4n3)C(=O)N[C@H](C3CC3)C(=O)N2C1
REMARK SMILES IDX 12 1 13 2 14 3 15 4 16 5 17 6 18 7 19 8 20 9 21 11 23 12
REMARK SMILES IDX 22 13 24 15 28 16 29 17 30 18 1 19 2 20 3 21 4 22 31 23 5 24
REMARK SMILES IDX 25 26 26 27 27 28 9 29 10 30 11 31 8 32 7 33 6 34
REMARK H PARENT 16 10 23 14
REMARK Flexibility Score:  122.900
ROOT
ATOM      1  C   UNL     1      33.579  11.023  -2.606  1.00  0.00     0.067 A
ATOM      2  C   UNL     1      34.792  11.110  -1.904  1.00  0.00     0.138 A
ATOM      3  N   UNL     1      35.536  12.239  -1.721  1.00  0.00    -0.235 NA
ATOM      4  C   UNL     1      34.964  13.283  -2.352  1.00  0.00     0.156 A
ATOM      5  N   UNL     1      35.454  14.557  -2.435  1.00  0.00    -0.344 N
ATOM      6  C   UNL     1      34.631  15.317  -3.236  1.00  0.00     0.100 A
ATOM      7  C   UNL     1      33.570  14.525  -3.654  1.00  0.00     0.085 A
ATOM      8  C   UNL     1      33.776  13.252  -3.064  1.00  0.00     0.120 A
ATOM      9  N   UNL     1      33.030  12.122  -3.173  1.00  0.00    -0.246 NA
ATOM     10  H   UNL     1      36.316  14.860  -2.004  1.00  0.00     0.168 HD
ENDROOT
BRANCH   7  11
ATOM     11  C   UNL     1      32.511  14.903  -4.581  1.00  0.00     0.255 C
ATOM     12  N   UNL     1      31.610  15.789  -4.052  1.00  0.00    -0.340 N
ATOM     13  O   UNL     1      32.412  14.426  -5.707  1.00  0.00    -0.269 OA
ATOM     14  H   UNL     1      31.787  16.148  -3.113  1.00  0.00     0.164 HD
BRANCH  12  15
ATOM     15  C   UNL     1      30.321  16.095  -4.639  1.00  0.00     0.175 C
BRANCH  15  16
ATOM     16  C   UNL     1      30.652  17.092  -5.784  1.00  0.00     0.245 C
ATOM     17  O   UNL     1      30.497  16.787  -6.972  1.00  0.00    -0.272 OA
BRANCH  16  18
ATOM     18  N   UNL     1      31.283  18.280  -5.450  1.00  0.00    -0.336 N
ATOM     19  N   UNL     1      29.880  21.841  -6.585  1.00  0.00    -0.198 NA
ATOM     20  C   UNL     1      30.571  21.278  -5.841  1.00  0.00     0.067 C
ATOM     21  C   UNL     1      31.450  20.574  -4.895  1.00  0.00     0.114 C
ATOM     22  C   UNL     1      32.758  20.145  -5.562  1.00  0.00     0.046 C
ATOM     23  C   UNL     1      30.836  19.247  -4.458  1.00  0.00     0.138 C
ATOM     24  C   UNL     1      32.428  18.789  -6.216  1.00  0.00     0.096 C
ATOM     25  G   UNL     1      33.649  17.839  -6.306  1.00  0.00     0.000 C
ENDBRANCH  16  18
ENDBRANCH  15  16
BRANCH  15  26
ATOM     26  C   UNL     1      29.621  14.816  -5.021  1.00  0.00     0.021 C
ATOM     27  C   UNL     1      28.120  14.687  -5.114  1.00  0.00     0.006 C
ATOM     28  C   UNL     1      28.870  13.961  -4.028  1.00  0.00     0.006 C
ENDBRANCH  15  26
ENDBRANCH  12  15
ENDBRANCH   7  11
BRANCH   1  29
ATOM     29  C   UNL     1      32.836   9.698  -2.788  1.00  0.00     0.023 C
ATOM     30  C   UNL     1      33.603   8.417  -2.469  1.00  0.00     0.015 C
ATOM     31  C   UNL     1      32.525   8.879  -1.542  1.00  0.00     0.015 C
BRANCH  29  32
ATOM     32  C   UNL     1      31.857   9.649  -3.948  1.00  0.00     0.083 C
BRANCH  32  33
ATOM     33  S   UNL     1      30.228  10.378  -3.597  1.00  0.00    -0.159 SA
BRANCH  33  34
ATOM     34  C   UNL     1      29.267   9.741  -5.022  1.00  0.00     0.094 C
ATOM     35  G   UNL     1      29.829   8.446  -5.660  1.00  0.00     0.000 C
ENDBRANCH  33  34
ENDBRANCH  32  33
ENDBRANCH  29  32
ENDBRANCH   1  29
TORSDOF 1
ENDMDL
MODEL 9
REMARK VINA RESULT:      -8.4      1.684      2.825
REMARK SMILES N#C[C@@H]1C[C@H]2CSCC3(CC3)c3cnc4[nH]cc(c4n3)C(=O)N[C@H](C3CC3)C(=O)N2C1
REMARK SMILES IDX 12 1 13 2 14 3 15 4 16 5 17 6 18 7 19 8 20 9 21 11 23 12
REMARK SMILES IDX 22 13 24 15 28 16 29 17 30 18 1 19 2 20 3 21 4 22 31 23 5 24
REMARK SMILES IDX 25 26 26 27 27 28 9 29 10 30 11 31 8 32 7 33 6 34
REMARK H PARENT 16 10 23 14
REMARK Flexibility Score:  122.900
ROOT
ATOM      1  C   UNL     1      31.556  11.859  -4.036  1.00  0.00     0.067 A
ATOM      2  C   UNL     1      31.196  10.502  -4.065  1.00  0.00     0.138 A
ATOM      3  N   UNL     1      30.007   9.994  -4.502  1.00  0.00    -0.235 NA
ATOM      4  C   UNL     1      29.182  10.992  -4.875  1.00  0.00     0.156 A
ATOM      5  N   UNL     1      27.892  10.866  -5.311  1.00  0.00    -0.344 N
ATOM      6  C   UNL     1      27.349  12.115  -5.513  1.00  0.00     0.100 A
ATOM      7  C   UNL     1      28.319  13.068  -5.230  1.00  0.00     0.085 A
ATOM      8  C   UNL     1      29.482  12.344  -4.859  1.00  0.00     0.120 A
ATOM      9  N   UNL     1      30.698  12.810  -4.475  1.00  0.00    -0.246 NA
ATOM     10  H   UNL     1      27.416   9.982  -5.417  1.00  0.00     0.168 HD
ENDROOT
BRANCH   7  11
ATOM     11  C   UNL     1      28.148  14.515  -5.232  1.00  0.00     0.255 C
ATOM     12  N   UNL     1      29.075  15.176  -5.993  1.00  0.00    -0.340 N
ATOM     13  O   UNL     1      27.287  15.082  -4.568  1.00  0.00    -0.269 OA
ATOM     14  H   UNL     1      29.741  14.617  -6.528  1.00  0.00     0.164 HD
BRANCH  12  15
ATOM     15  C   UNL     1      29.316  16.604  -5.935  1.00  0.00     0.175 C
BRANCH  15  16
ATOM     16  C   UNL     1      30.846  16.741  -6.169  1.00  0.00     0.245 C
ATOM     17  O   UNL     1      31.509  15.822  -6.661  1.00  0.00    -0.272 OA
BRANCH  16  18
ATOM     18  N   UNL     1      31.483  17.862  -5.661  1.00  0.00    -0.336 N
ATOM     19  N   UNL     1      29.823  21.491  -5.748  1.00  0.00    -0.198 NA
ATOM     20  C   UNL     1      30.631  20.822  -5.254  1.00  0.00     0.067 C
ATOM     21  C   UNL     1      31.661  19.981  -4.623  1.00  0.00     0.114 C
ATOM     22  C   UNL     1      32.869  19.794  -5.542  1.00  0.00     0.046 C
ATOM     23  C   UNL     1      31.158  18.554  -4.422  1.00  0.00     0.138 C
ATOM     24  C   UNL     1      32.488  18.599  -6.438  1.00  0.00     0.096 C
ATOM     25  G   UNL     1      33.710  17.771  -6.909  1.00  0.00     0.000 C
ENDBRANCH  16  18
ENDBRANCH  15  16
BRANCH  15  26
ATOM     26  C   UNL     1      28.406  17.311  -6.906  1.00  0.00     0.021 C
ATOM     27  C   UNL     1      28.137  18.796  -6.863  1.00  0.00     0.006 C
ATOM     28  C   UNL     1      27.037  17.825  -6.527  1.00  0.00     0.006 C
ENDBRANCH  15  26
ENDBRANCH  12  15
ENDBRANCH   7  11
BRANCH   1  29
ATOM     29  C   UNL     1      32.904  12.334  -3.491  1.00  0.00     0.023 C
ATOM     30  C   UNL     1      33.309  13.775  -3.787  1.00  0.00     0.015 C
ATOM     31  C   UNL     1      32.896  13.398  -2.400  1.00  0.00     0.015 C
BRANCH  29  32
ATOM     32  C   UNL     1      34.010  11.293  -3.476  1.00  0.00     0.083 C
BRANCH  32  33
ATOM     33  S   UNL     1      35.105  11.369  -2.026  1.00  0.00    -0.159 SA
BRANCH  33  34
ATOM     34  C   UNL     1      34.858   9.688  -1.337  1.00  0.00     0.094 C
ATOM     35  G   UNL     1      33.883   8.791  -2.141  1.00  0.00     0.000 C
ENDBRANCH  33  34
ENDBRANCH  32  33
ENDBRANCH  29  32
ENDBRANCH   1  29
TORSDOF 1
ENDMDL
