MODEL 1
REMARK VINA RESULT:      -8.6      0.000      0.000
REMARK SMILES O=C1Nc2c[nH]nc2-c2nc3ccc(cc3[nH]2)CN2CCOC[C@H]2CNCOCC2(CC2)N1
REMARK SMILES IDX 19 1 20 2 21 3 22 4 23 5 24 6 18 7 14 8 9 9 10 10 17 11
REMARK SMILES IDX 11 12 16 13 12 14 15 15 13 16 8 18 4 19 5 20 6 21 7 22 3 24
REMARK SMILES IDX 1 25 2 26 33 27 30 30 31 31 32 32 25 34 26 35 27 37 28 38
REMARK SMILES IDX 29 39
REMARK H PARENT 17 17 6 23 3 28 33 29 26 36
REMARK Flexibility Score:  190.900
ROOT
ATOM      1  N   UNL     1      30.833  10.412  -3.667  1.00  0.00    -0.290 NA
ATOM      2  C   UNL     1      29.569  10.404  -4.460  1.00  0.00     0.113 C
ATOM      3  C   UNL     1      29.180   9.031  -5.061  1.00  0.00     0.175 C
ATOM      4  O   UNL     1      30.324   8.212  -5.314  1.00  0.00    -0.378 OA
ATOM      5  C   UNL     1      31.061   7.928  -4.103  1.00  0.00     0.180 C
ATOM      6  C   UNL     1      30.936   9.048  -3.038  1.00  0.00     0.096 C
ENDROOT
BRANCH   1   7
ATOM      7  C   UNL     1      31.940  10.774  -4.604  1.00  0.00     0.120 C
BRANCH   7   8
ATOM      8  C   UNL     1      32.496  12.173  -4.437  1.00  0.00    -0.032 A
ATOM      9  C   UNL     1      32.358  16.671  -4.662  1.00  0.00     0.161 A
ATOM     10  N   UNL     1      32.909  16.188  -3.565  1.00  0.00    -0.227 NA
ATOM     11  N   UNL     1      32.200  15.696  -5.610  1.00  0.00    -0.337 N
ATOM     12  C   UNL     1      32.990  14.837  -3.775  1.00  0.00     0.089 A
ATOM     13  C   UNL     1      32.446  14.489  -5.007  1.00  0.00     0.066 A
ATOM     14  C   UNL     1      33.458  13.832  -2.919  1.00  0.00     0.031 A
ATOM     15  C   UNL     1      32.190  13.169  -5.385  1.00  0.00     0.033 A
ATOM     16  C   UNL     1      33.207  12.498  -3.265  1.00  0.00     0.007 A
ATOM     17  H   UNL     1      31.773  15.851  -6.510  1.00  0.00     0.168 HD
BRANCH   9  18
ATOM     18  C   UNL     1      31.943  18.156  -4.895  1.00  0.00     0.151 A
ATOM     19  C   UNL     1      30.685  18.744  -4.602  1.00  0.00     0.092 A
ATOM     20  C   UNL     1      30.909  20.096  -4.696  1.00  0.00     0.132 A
ATOM     21  N   UNL     1      32.177  20.228  -5.192  1.00  0.00    -0.283 N
ATOM     22  N   UNL     1      32.814  19.058  -5.376  1.00  0.00    -0.170 NA
ATOM     23  H   UNL     1      32.662  21.083  -5.444  1.00  0.00     0.189 HD
BRANCH  19  24
ATOM     24  N   UNL     1      29.445  18.179  -4.348  1.00  0.00    -0.304 N
ATOM     25  O   UNL     1      29.445  16.761  -6.187  1.00  0.00    -0.248 OA
ATOM     26  C   UNL     1      28.944  17.154  -5.138  1.00  0.00     0.319 C
ATOM     27  N   UNL     1      27.728  16.697  -4.670  1.00  0.00    -0.330 N
ATOM     28  H   UNL     1      28.774  18.731  -3.838  1.00  0.00     0.172 HD
ATOM     29  H   UNL     1      27.488  16.889  -3.708  1.00  0.00     0.166 HD
BRANCH  27  30
ATOM     30  C   UNL     1      26.863  15.820  -5.435  1.00  0.00     0.065 C
ATOM     31  C   UNL     1      27.151  14.327  -5.323  1.00  0.00     0.033 C
ATOM     32  C   UNL     1      25.923  14.885  -4.688  1.00  0.00     0.033 C
ATOM     33  G   UNL     1      26.459  16.328  -6.821  1.00  0.00     0.000 C
ENDBRANCH  27  30
ENDBRANCH  19  24
ENDBRANCH   9  18
ENDBRANCH   7   8
ENDBRANCH   1   7
BRANCH   6  34
ATOM     34  C   UNL     1      31.946   8.920  -1.865  1.00  0.00     0.104 C
BRANCH  34  35
ATOM     35  N   UNL     1      33.174   8.173  -2.173  1.00  0.00    -0.293 NA
ATOM     36  H   UNL     1      33.366   7.479  -1.454  1.00  0.00     0.125 HD
BRANCH  35  37
ATOM     37  C   UNL     1      34.308   9.100  -2.203  1.00  0.00     0.244 C
BRANCH  37  38
ATOM     38  O   UNL     1      34.637   9.463  -0.869  1.00  0.00    -0.364 OA
BRANCH  38  39
ATOM     39  C   UNL     1      35.911  10.110  -0.783  1.00  0.00     0.190 C
ATOM     40  G   UNL     1      35.833  11.615  -1.046  1.00  0.00     0.000 C
ENDBRANCH  38  39
ENDBRANCH  37  38
ENDBRANCH  35  37
ENDBRANCH  34  35
ENDBRANCH   6  34
TORSDOF 0
ENDMDL
MODEL 2
REMARK VINA RESULT:      -8.2      1.305      1.581
REMARK SMILES O=C1Nc2c[nH]nc2-c2nc3ccc(cc3[nH]2)CN2CCOC[C@H]2CNCOCC2(CC2)N1
REMARK SMILES IDX 19 1 20 2 21 3 22 4 23 5 24 6 18 7 14 8 9 9 10 10 17 11
REMARK SMILES IDX 11 12 16 13 12 14 15 15 13 16 8 18 4 19 5 20 6 21 7 22 3 24
REMARK SMILES IDX 1 25 2 26 33 27 30 30 31 31 32 32 25 34 26 35 27 37 28 38
REMARK SMILES IDX 29 39
REMARK H PARENT 17 17 6 23 3 28 33 29 26 36
REMARK Flexibility Score:  190.900
ROOT
ATOM      1  N   UNL     1      31.080  10.699  -3.416  1.00  0.00    -0.290 NA
ATOM      2  C   UNL     1      29.807  10.748  -4.191  1.00  0.00     0.113 C
ATOM      3  C   UNL     1      29.416   9.425  -4.896  1.00  0.00     0.175 C
ATOM      4  O   UNL     1      30.561   8.636  -5.227  1.00  0.00    -0.378 OA
ATOM      5  C   UNL     1      31.314   8.259  -4.052  1.00  0.00     0.180 C
ATOM      6  C   UNL     1      31.198   9.289  -2.900  1.00  0.00     0.096 C
ENDROOT
BRANCH   1   7
ATOM      7  C   UNL     1      32.174  11.141  -4.333  1.00  0.00     0.120 C
BRANCH   7   8
ATOM      8  C   UNL     1      32.442  12.632  -4.349  1.00  0.00    -0.032 A
ATOM      9  C   UNL     1      31.559  16.925  -5.396  1.00  0.00     0.161 A
ATOM     10  N   UNL     1      31.997  16.733  -4.167  1.00  0.00    -0.227 NA
ATOM     11  N   UNL     1      31.733  15.805  -6.166  1.00  0.00    -0.337 N
ATOM     12  C   UNL     1      32.347  15.410  -4.117  1.00  0.00     0.089 A
ATOM     13  C   UNL     1      32.083  14.777  -5.328  1.00  0.00     0.066 A
ATOM     14  C   UNL     1      32.836  14.660  -3.040  1.00  0.00     0.031 A
ATOM     15  C   UNL     1      32.127  13.391  -5.493  1.00  0.00     0.033 A
ATOM     16  C   UNL     1      32.882  13.267  -3.170  1.00  0.00     0.007 A
ATOM     17  H   UNL     1      31.439  15.733  -7.128  1.00  0.00     0.168 HD
BRANCH   9  18
ATOM     18  C   UNL     1      30.935  18.243  -5.947  1.00  0.00     0.151 A
ATOM     19  C   UNL     1      29.553  18.539  -6.080  1.00  0.00     0.092 A
ATOM     20  C   UNL     1      29.515  19.894  -6.312  1.00  0.00     0.132 A
ATOM     21  N   UNL     1      30.817  20.278  -6.476  1.00  0.00    -0.283 N
ATOM     22  N   UNL     1      31.705  19.281  -6.312  1.00  0.00    -0.170 NA
ATOM     23  H   UNL     1      31.169  21.199  -6.716  1.00  0.00     0.189 HD
BRANCH  19  24
ATOM     24  N   UNL     1      28.435  17.721  -6.076  1.00  0.00    -0.304 N
ATOM     25  O   UNL     1      29.202  16.255  -7.705  1.00  0.00    -0.248 OA
ATOM     26  C   UNL     1      28.378  16.574  -6.854  1.00  0.00     0.319 C
ATOM     27  N   UNL     1      27.204  15.875  -6.648  1.00  0.00    -0.330 N
ATOM     28  H   UNL     1      27.556  18.130  -5.803  1.00  0.00     0.172 HD
ATOM     29  H   UNL     1      26.690  16.053  -5.797  1.00  0.00     0.166 HD
BRANCH  27  30
ATOM     30  C   UNL     1      26.767  14.790  -7.504  1.00  0.00     0.065 C
ATOM     31  C   UNL     1      25.304  14.820  -7.933  1.00  0.00     0.033 C
ATOM     32  C   UNL     1      26.368  15.105  -8.938  1.00  0.00     0.033 C
ATOM     33  G   UNL     1      27.348  13.412  -7.180  1.00  0.00     0.000 C
ENDBRANCH  27  30
ENDBRANCH  19  24
ENDBRANCH   9  18
ENDBRANCH   7   8
ENDBRANCH   1   7
BRANCH   6  34
ATOM     34  C   UNL     1      32.223   9.073  -1.752  1.00  0.00     0.104 C
BRANCH  34  35
ATOM     35  N   UNL     1      33.359   8.201  -2.083  1.00  0.00    -0.293 NA
ATOM     36  H   UNL     1      33.599   7.604  -1.295  1.00  0.00     0.125 HD
BRANCH  35  37
ATOM     37  C   UNL     1      34.531   9.028  -2.380  1.00  0.00     0.244 C
BRANCH  37  38
ATOM     38  O   UNL     1      34.429  10.243  -1.649  1.00  0.00    -0.364 OA
BRANCH  38  39
ATOM     39  C   UNL     1      35.425  11.195  -2.041  1.00  0.00     0.190 C
ATOM     40  G   UNL     1      35.964  12.010  -0.864  1.00  0.00     0.000 C
ENDBRANCH  38  39
ENDBRANCH  37  38
ENDBRANCH  35  37
ENDBRANCH  34  35
ENDBRANCH   6  34
TORSDOF 0
ENDMDL
MODEL 3
REMARK VINA RESULT:      -8.0      1.231      1.607
REMARK SMILES O=C1Nc2c[nH]nc2-c2nc3ccc(cc3[nH]2)CN2CCOC[C@H]2CNCOCC2(CC2)N1
REMARK SMILES IDX 19 1 20 2 21 3 22 4 23 5 24 6 18 7 14 8 9 9 10 10 17 11
REMARK SMILES IDX 11 12 16 13 12 14 15 15 13 16 8 18 4 19 5 20 6 21 7 22 3 24
REMARK SMILES IDX 1 25 2 26 33 27 30 30 31 31 32 32 25 34 26 35 27 37 28 38
REMARK SMILES IDX 29 39
REMARK H PARENT 17 17 6 23 3 28 33 29 26 36
REMARK Flexibility Score:  190.900
ROOT
ATOM      1  N   UNL     1      30.320  10.982  -3.945  1.00  0.00    -0.290 NA
ATOM      2  C   UNL     1      29.003  10.991  -4.646  1.00  0.00     0.113 C
ATOM      3  C   UNL     1      28.631   9.669  -5.361  1.00  0.00     0.175 C
ATOM      4  O   UNL     1      29.788   8.940  -5.777  1.00  0.00    -0.378 OA
ATOM      5  C   UNL     1      30.624   8.570  -4.656  1.00  0.00     0.180 C
ATOM      6  C   UNL     1      30.529   9.567  -3.473  1.00  0.00     0.096 C
ENDROOT
BRANCH   1   7
ATOM      7  C   UNL     1      31.339  11.494  -4.911  1.00  0.00     0.120 C
BRANCH   7   8
ATOM      8  C   UNL     1      31.904  12.863  -4.592  1.00  0.00    -0.032 A
ATOM      9  C   UNL     1      32.518  17.277  -5.253  1.00  0.00     0.161 A
ATOM     10  N   UNL     1      32.323  16.927  -3.997  1.00  0.00    -0.227 NA
ATOM     11  N   UNL     1      32.762  16.184  -6.041  1.00  0.00    -0.337 N
ATOM     12  C   UNL     1      32.320  15.557  -4.006  1.00  0.00     0.089 A
ATOM     13  C   UNL     1      32.480  15.067  -5.298  1.00  0.00     0.066 A
ATOM     14  C   UNL     1      32.116  14.662  -2.950  1.00  0.00     0.031 A
ATOM     15  C   UNL     1      32.291  13.725  -5.636  1.00  0.00     0.033 A
ATOM     16  C   UNL     1      31.911  13.311  -3.256  1.00  0.00     0.007 A
ATOM     17  H   UNL     1      32.910  16.232  -7.038  1.00  0.00     0.168 HD
BRANCH   9  18
ATOM     18  C   UNL     1      32.498  18.734  -5.807  1.00  0.00     0.151 A
ATOM     19  C   UNL     1      31.416  19.652  -5.750  1.00  0.00     0.092 A
ATOM     20  C   UNL     1      31.976  20.862  -6.083  1.00  0.00     0.132 A
ATOM     21  N   UNL     1      33.255  20.582  -6.477  1.00  0.00    -0.283 N
ATOM     22  N   UNL     1      33.587  19.283  -6.371  1.00  0.00    -0.170 NA
ATOM     23  H   UNL     1      33.950  21.225  -6.844  1.00  0.00     0.189 HD
BRANCH  19  24
ATOM     24  N   UNL     1      30.065  19.463  -5.506  1.00  0.00    -0.304 N
ATOM     25  O   UNL     1      29.838  17.584  -6.852  1.00  0.00    -0.248 OA
ATOM     26  C   UNL     1      29.384  18.374  -6.031  1.00  0.00     0.319 C
ATOM     27  N   UNL     1      28.067  18.346  -5.611  1.00  0.00    -0.330 N
ATOM     28  H   UNL     1      29.515  20.272  -5.265  1.00  0.00     0.172 HD
ATOM     29  H   UNL     1      27.823  18.868  -4.782  1.00  0.00     0.166 HD
BRANCH  27  30
ATOM     30  C   UNL     1      27.066  17.478  -6.199  1.00  0.00     0.065 C
ATOM     31  C   UNL     1      25.857  18.170  -6.818  1.00  0.00     0.033 C
ATOM     32  C   UNL     1      26.860  17.515  -7.706  1.00  0.00     0.033 C
ATOM     33  G   UNL     1      26.787  16.178  -5.443  1.00  0.00     0.000 C
ENDBRANCH  27  30
ENDBRANCH  19  24
ENDBRANCH   9  18
ENDBRANCH   7   8
ENDBRANCH   1   7
BRANCH   6  34
ATOM     34  C   UNL     1      31.626   9.371  -2.391  1.00  0.00     0.104 C
BRANCH  34  35
ATOM     35  N   UNL     1      32.744   8.499  -2.783  1.00  0.00    -0.293 NA
ATOM     36  H   UNL     1      32.718   7.623  -2.267  1.00  0.00     0.125 HD
BRANCH  35  37
ATOM     37  C   UNL     1      34.009   9.163  -2.459  1.00  0.00     0.244 C
BRANCH  37  38
ATOM     38  O   UNL     1      33.765  10.552  -2.288  1.00  0.00    -0.364 OA
BRANCH  38  39
ATOM     39  C   UNL     1      34.965  11.328  -2.382  1.00  0.00     0.190 C
ATOM     40  G   UNL     1      35.767  11.344  -1.078  1.00  0.00     0.000 C
ENDBRANCH  38  39
ENDBRANCH  37  38
ENDBRANCH  35  37
ENDBRANCH  34  35
ENDBRANCH   6  34
TORSDOF 0
ENDMDL
MODEL 4
REMARK VINA RESULT:      -7.7      1.642      1.961
REMARK SMILES O=C1Nc2c[nH]nc2-c2nc3ccc(cc3[nH]2)CN2CCOC[C@H]2CNCOCC2(CC2)N1
REMARK SMILES IDX 19 1 20 2 21 3 22 4 23 5 24 6 18 7 14 8 9 9 10 10 17 11
REMARK SMILES IDX 11 12 16 13 12 14 15 15 13 16 8 18 4 19 5 20 6 21 7 22 3 24
REMARK SMILES IDX 1 25 2 26 33 27 30 30 31 31 32 32 25 34 26 35 27 37 28 38
REMARK SMILES IDX 29 39
REMARK H PARENT 17 17 6 23 3 28 33 29 26 36
REMARK Flexibility Score:  190.900
ROOT
ATOM      1  N   UNL     1      30.606  11.236  -4.140  1.00  0.00    -0.290 NA
ATOM      2  C   UNL     1      29.252  11.858  -4.071  1.00  0.00     0.113 C
ATOM      3  C   UNL     1      28.153  11.134  -4.887  1.00  0.00     0.175 C
ATOM      4  O   UNL     1      28.693  10.443  -6.016  1.00  0.00    -0.378 OA
ATOM      5  C   UNL     1      29.639   9.424  -5.622  1.00  0.00     0.180 C
ATOM      6  C   UNL     1      30.373   9.756  -4.298  1.00  0.00     0.096 C
ENDROOT
BRANCH   1   7
ATOM      7  C   UNL     1      31.339  11.895  -5.263  1.00  0.00     0.120 C
BRANCH   7   8
ATOM      8  C   UNL     1      31.965  13.233  -4.931  1.00  0.00    -0.032 A
ATOM      9  C   UNL     1      32.364  17.716  -5.143  1.00  0.00     0.161 A
ATOM     10  N   UNL     1      32.522  17.203  -3.938  1.00  0.00    -0.227 NA
ATOM     11  N   UNL     1      32.387  16.742  -6.105  1.00  0.00    -0.337 N
ATOM     12  C   UNL     1      32.520  15.846  -4.128  1.00  0.00     0.089 A
ATOM     13  C   UNL     1      32.321  15.529  -5.468  1.00  0.00     0.066 A
ATOM     14  C   UNL     1      32.614  14.817  -3.184  1.00  0.00     0.031 A
ATOM     15  C   UNL     1      32.050  14.235  -5.917  1.00  0.00     0.033 A
ATOM     16  C   UNL     1      32.337  13.509  -3.599  1.00  0.00     0.007 A
ATOM     17  H   UNL     1      32.256  16.921  -7.089  1.00  0.00     0.168 HD
BRANCH   9  18
ATOM     18  C   UNL     1      32.190  19.230  -5.473  1.00  0.00     0.151 A
ATOM     19  C   UNL     1      31.080  19.838  -6.116  1.00  0.00     0.092 A
ATOM     20  C   UNL     1      31.258  21.185  -5.903  1.00  0.00     0.132 A
ATOM     21  N   UNL     1      32.495  21.309  -5.332  1.00  0.00    -0.283 N
ATOM     22  N   UNL     1      33.111  20.136  -5.106  1.00  0.00    -0.170 NA
ATOM     23  H   UNL     1      32.984  22.163  -5.086  1.00  0.00     0.189 HD
BRANCH  19  24
ATOM     24  N   UNL     1      30.051  19.301  -6.873  1.00  0.00    -0.304 N
ATOM     25  O   UNL     1      28.553  19.071  -5.114  1.00  0.00    -0.248 OA
ATOM     26  C   UNL     1      28.813  19.023  -6.312  1.00  0.00     0.319 C
ATOM     27  N   UNL     1      27.919  18.557  -7.256  1.00  0.00    -0.330 N
ATOM     28  H   UNL     1      30.299  18.792  -7.706  1.00  0.00     0.172 HD
ATOM     29  H   UNL     1      28.109  18.753  -8.227  1.00  0.00     0.166 HD
BRANCH  27  30
ATOM     30  C   UNL     1      26.647  17.952  -6.911  1.00  0.00     0.065 C
ATOM     31  C   UNL     1      26.510  16.461  -7.203  1.00  0.00     0.033 C
ATOM     32  C   UNL     1      26.605  16.925  -5.789  1.00  0.00     0.033 C
ATOM     33  G   UNL     1      25.408  18.809  -7.181  1.00  0.00     0.000 C
ENDBRANCH  27  30
ENDBRANCH  19  24
ENDBRANCH   9  18
ENDBRANCH   7   8
ENDBRANCH   1   7
BRANCH   6  34
ATOM     34  C   UNL     1      31.599   8.846  -4.008  1.00  0.00     0.104 C
BRANCH  34  35
ATOM     35  N   UNL     1      31.622   8.232  -2.673  1.00  0.00    -0.293 NA
ATOM     36  H   UNL     1      30.678   8.075  -2.329  1.00  0.00     0.125 HD
BRANCH  35  37
ATOM     37  C   UNL     1      32.286   9.141  -1.736  1.00  0.00     0.244 C
BRANCH  37  38
ATOM     38  O   UNL     1      33.592   8.647  -1.469  1.00  0.00    -0.364 OA
BRANCH  38  39
ATOM     39  C   UNL     1      34.568   9.189  -2.366  1.00  0.00     0.190 C
ATOM     40  G   UNL     1      34.467  10.709  -2.508  1.00  0.00     0.000 C
ENDBRANCH  38  39
ENDBRANCH  37  38
ENDBRANCH  35  37
ENDBRANCH  34  35
ENDBRANCH   6  34
TORSDOF 0
ENDMDL
MODEL 5
REMARK VINA RESULT:      -7.7      1.892      4.093
REMARK SMILES O=C1Nc2c[nH]nc2-c2nc3ccc(cc3[nH]2)CN2CCOC[C@H]2CNCOCC2(CC2)N1
REMARK SMILES IDX 19 1 20 2 21 3 22 4 23 5 24 6 18 7 14 8 9 9 10 10 17 11
REMARK SMILES IDX 11 12 16 13 12 14 15 15 13 16 8 18 4 19 5 20 6 21 7 22 3 24
REMARK SMILES IDX 1 25 2 26 33 27 30 30 31 31 32 32 25 34 26 35 27 37 28 38
REMARK SMILES IDX 29 39
REMARK H PARENT 17 17 6 23 3 28 33 29 26 36
REMARK Flexibility Score:  190.900
ROOT
ATOM      1  N   UNL     1      33.005  10.637  -3.650  1.00  0.00    -0.290 NA
ATOM      2  C   UNL     1      34.259  10.026  -3.120  1.00  0.00     0.113 C
ATOM      3  C   UNL     1      34.051   8.892  -2.087  1.00  0.00     0.175 C
ATOM      4  O   UNL     1      32.831   9.046  -1.359  1.00  0.00    -0.378 OA
ATOM      5  C   UNL     1      31.677   9.014  -2.229  1.00  0.00     0.180 C
ATOM      6  C   UNL     1      31.979   9.534  -3.658  1.00  0.00     0.096 C
ENDROOT
BRANCH   1   7
ATOM      7  C   UNL     1      32.682  11.809  -2.780  1.00  0.00     0.120 C
BRANCH   7   8
ATOM      8  C   UNL     1      32.775  13.161  -3.457  1.00  0.00    -0.032 A
ATOM      9  C   UNL     1      31.120  16.857  -5.433  1.00  0.00     0.161 A
ATOM     10  N   UNL     1      32.100  17.077  -4.579  1.00  0.00    -0.227 NA
ATOM     11  N   UNL     1      31.011  15.524  -5.731  1.00  0.00    -0.337 N
ATOM     12  C   UNL     1      32.550  15.832  -4.226  1.00  0.00     0.089 A
ATOM     13  C   UNL     1      31.805  14.837  -4.850  1.00  0.00     0.066 A
ATOM     14  C   UNL     1      33.553  15.475  -3.317  1.00  0.00     0.031 A
ATOM     15  C   UNL     1      31.892  13.486  -4.505  1.00  0.00     0.033 A
ATOM     16  C   UNL     1      33.659  14.131  -2.941  1.00  0.00     0.007 A
ATOM     17  H   UNL     1      30.307  15.141  -6.344  1.00  0.00     0.168 HD
BRANCH   9  18
ATOM     18  C   UNL     1      30.194  17.944  -6.059  1.00  0.00     0.151 A
ATOM     19  C   UNL     1      28.776  17.924  -6.116  1.00  0.00     0.092 A
ATOM     20  C   UNL     1      28.430  19.205  -6.473  1.00  0.00     0.132 A
ATOM     21  N   UNL     1      29.606  19.836  -6.772  1.00  0.00    -0.283 N
ATOM     22  N   UNL     1      30.698  19.075  -6.580  1.00  0.00    -0.170 NA
ATOM     23  H   UNL     1      29.735  20.779  -7.125  1.00  0.00     0.189 HD
BRANCH  19  24
ATOM     24  N   UNL     1      27.866  16.892  -5.949  1.00  0.00    -0.304 N
ATOM     25  O   UNL     1      28.081  16.030  -8.094  1.00  0.00    -0.248 OA
ATOM     26  C   UNL     1      27.641  15.960  -6.951  1.00  0.00     0.319 C
ATOM     27  N   UNL     1      26.746  14.986  -6.550  1.00  0.00    -0.330 N
ATOM     28  H   UNL     1      27.130  17.022  -5.273  1.00  0.00     0.172 HD
ATOM     29  H   UNL     1      26.604  14.852  -5.560  1.00  0.00     0.166 HD
BRANCH  27  30
ATOM     30  C   UNL     1      26.137  14.043  -7.468  1.00  0.00     0.065 C
ATOM     31  C   UNL     1      24.637  13.822  -7.307  1.00  0.00     0.033 C
ATOM     32  C   UNL     1      25.144  14.563  -8.498  1.00  0.00     0.033 C
ATOM     33  G   UNL     1      26.971  12.804  -7.799  1.00  0.00     0.000 C
ENDBRANCH  27  30
ENDBRANCH  19  24
ENDBRANCH   9  18
ENDBRANCH   7   8
ENDBRANCH   1   7
BRANCH   6  34
ATOM     34  C   UNL     1      30.711   9.798  -4.516  1.00  0.00     0.104 C
BRANCH  34  35
ATOM     35  N   UNL     1      29.614  10.484  -3.819  1.00  0.00    -0.293 NA
ATOM     36  H   UNL     1      29.140   9.852  -3.178  1.00  0.00     0.125 HD
BRANCH  35  37
ATOM     37  C   UNL     1      28.625  10.935  -4.801  1.00  0.00     0.244 C
BRANCH  37  38
ATOM     38  O   UNL     1      27.556  10.000  -4.835  1.00  0.00    -0.364 OA
BRANCH  38  39
ATOM     39  C   UNL     1      27.341   9.472  -6.149  1.00  0.00     0.190 C
ATOM     40  G   UNL     1      26.657   8.103  -6.136  1.00  0.00     0.000 C
ENDBRANCH  38  39
ENDBRANCH  37  38
ENDBRANCH  35  37
ENDBRANCH  34  35
ENDBRANCH   6  34
TORSDOF 0
ENDMDL
MODEL 6
REMARK VINA RESULT:      -7.7      1.755      3.880
REMARK SMILES O=C1Nc2c[nH]nc2-c2nc3ccc(cc3[nH]2)CN2CCOC[C@H]2CNCOCC2(CC2)N1
REMARK SMILES IDX 19 1 20 2 21 3 22 4 23 5 24 6 18 7 14 8 9 9 10 10 17 11
REMARK SMILES IDX 11 12 16 13 12 14 15 15 13 16 8 18 4 19 5 20 6 21 7 22 3 24
REMARK SMILES IDX 1 25 2 26 33 27 30 30 31 31 32 32 25 34 26 35 27 37 28 38
REMARK SMILES IDX 29 39
REMARK H PARENT 17 17 6 23 3 28 33 29 26 36
REMARK Flexibility Score:  190.900
ROOT
ATOM      1  N   UNL     1      33.662  10.613  -3.371  1.00  0.00    -0.290 NA
ATOM      2  C   UNL     1      34.991  10.183  -2.848  1.00  0.00     0.113 C
ATOM      3  C   UNL     1      34.940   9.177  -1.671  1.00  0.00     0.175 C
ATOM      4  O   UNL     1      33.748   9.322  -0.895  1.00  0.00    -0.378 OA
ATOM      5  C   UNL     1      32.559   9.083  -1.682  1.00  0.00     0.180 C
ATOM      6  C   UNL     1      32.741   9.437  -3.180  1.00  0.00     0.096 C
ENDROOT
BRANCH   1   7
ATOM      7  C   UNL     1      33.279  11.857  -2.636  1.00  0.00     0.120 C
BRANCH   7   8
ATOM      8  C   UNL     1      32.682  12.956  -3.490  1.00  0.00    -0.032 A
ATOM      9  C   UNL     1      32.377  17.145  -5.120  1.00  0.00     0.161 A
ATOM     10  N   UNL     1      32.212  16.190  -6.014  1.00  0.00    -0.227 NA
ATOM     11  N   UNL     1      32.331  16.646  -3.845  1.00  0.00    -0.337 N
ATOM     12  C   UNL     1      32.184  15.027  -5.290  1.00  0.00     0.089 A
ATOM     13  C   UNL     1      32.373  15.279  -3.935  1.00  0.00     0.066 A
ATOM     14  C   UNL     1      32.071  13.705  -5.736  1.00  0.00     0.031 A
ATOM     15  C   UNL     1      32.615  14.273  -2.996  1.00  0.00     0.033 A
ATOM     16  C   UNL     1      32.319  12.674  -4.823  1.00  0.00     0.007 A
ATOM     17  H   UNL     1      32.463  17.207  -3.017  1.00  0.00     0.168 HD
BRANCH   9  18
ATOM     18  C   UNL     1      32.582  18.659  -5.431  1.00  0.00     0.151 A
ATOM     19  C   UNL     1      31.659  19.530  -6.068  1.00  0.00     0.092 A
ATOM     20  C   UNL     1      32.161  20.788  -5.838  1.00  0.00     0.132 A
ATOM     21  N   UNL     1      33.388  20.598  -5.264  1.00  0.00    -0.283 N
ATOM     22  N   UNL     1      33.696  19.306  -5.052  1.00  0.00    -0.170 NA
ATOM     23  H   UNL     1      34.072  21.302  -5.006  1.00  0.00     0.189 HD
BRANCH  19  24
ATOM     24  N   UNL     1      30.533  19.272  -6.833  1.00  0.00    -0.304 N
ATOM     25  O   UNL     1      29.049  19.164  -5.050  1.00  0.00    -0.248 OA
ATOM     26  C   UNL     1      29.275  19.181  -6.256  1.00  0.00     0.319 C
ATOM     27  N   UNL     1      28.291  18.984  -7.206  1.00  0.00    -0.330 N
ATOM     28  H   UNL     1      30.663  18.806  -7.717  1.00  0.00     0.172 HD
ATOM     29  H   UNL     1      28.498  19.232  -8.162  1.00  0.00     0.166 HD
BRANCH  27  30
ATOM     30  C   UNL     1      26.933  18.601  -6.872  1.00  0.00     0.065 C
ATOM     31  C   UNL     1      26.441  17.284  -7.461  1.00  0.00     0.033 C
ATOM     32  C   UNL     1      26.712  17.376  -5.997  1.00  0.00     0.033 C
ATOM     33  G   UNL     1      25.913  19.742  -6.825  1.00  0.00     0.000 C
ENDBRANCH  27  30
ENDBRANCH  19  24
ENDBRANCH   9  18
ENDBRANCH   7   8
ENDBRANCH   1   7
BRANCH   6  34
ATOM     34  C   UNL     1      31.413   9.482  -3.985  1.00  0.00     0.104 C
BRANCH  34  35
ATOM     35  N   UNL     1      30.826   8.172  -4.299  1.00  0.00    -0.293 NA
ATOM     36  H   UNL     1      31.538   7.524  -4.626  1.00  0.00     0.125 HD
BRANCH  35  37
ATOM     37  C   UNL     1      29.846   8.328  -5.377  1.00  0.00     0.244 C
BRANCH  37  38
ATOM     38  O   UNL     1      29.541   9.709  -5.520  1.00  0.00    -0.364 OA
BRANCH  38  39
ATOM     39  C   UNL     1      28.159   9.929  -5.821  1.00  0.00     0.190 C
ATOM     40  G   UNL     1      27.658  11.297  -5.352  1.00  0.00     0.000 C
ENDBRANCH  38  39
ENDBRANCH  37  38
ENDBRANCH  35  37
ENDBRANCH  34  35
ENDBRANCH   6  34
TORSDOF 0
ENDMDL
MODEL 7
REMARK VINA RESULT:      -7.6      1.681      2.064
REMARK SMILES O=C1Nc2c[nH]nc2-c2nc3ccc(cc3[nH]2)CN2CCOC[C@H]2CNCOCC2(CC2)N1
REMARK SMILES IDX 19 1 20 2 21 3 22 4 23 5 24 6 18 7 14 8 9 9 10 10 17 11
REMARK SMILES IDX 11 12 16 13 12 14 15 15 13 16 8 18 4 19 5 20 6 21 7 22 3 24
REMARK SMILES IDX 1 25 2 26 33 27 30 30 31 31 32 32 25 34 26 35 27 37 28 38
REMARK SMILES IDX 29 39
REMARK H PARENT 17 17 6 23 3 28 33 29 26 36
REMARK Flexibility Score:  190.900
ROOT
ATOM      1  N   UNL     1      31.536  10.855  -3.358  1.00  0.00    -0.290 NA
ATOM      2  C   UNL     1      30.189  11.474  -3.531  1.00  0.00     0.113 C
ATOM      3  C   UNL     1      29.204  10.669  -4.412  1.00  0.00     0.175 C
ATOM      4  O   UNL     1      29.883   9.873  -5.387  1.00  0.00    -0.378 OA
ATOM      5  C   UNL     1      30.761   8.902  -4.773  1.00  0.00     0.180 C
ATOM      6  C   UNL     1      31.315   9.366  -3.401  1.00  0.00     0.096 C
ENDROOT
BRANCH   1   7
ATOM      7  C   UNL     1      32.417  11.405  -4.433  1.00  0.00     0.120 C
BRANCH   7   8
ATOM      8  C   UNL     1      32.444  12.916  -4.537  1.00  0.00    -0.032 A
ATOM      9  C   UNL     1      30.746  16.967  -5.538  1.00  0.00     0.161 A
ATOM     10  N   UNL     1      31.404  16.910  -4.397  1.00  0.00    -0.227 NA
ATOM     11  N   UNL     1      30.962  15.846  -6.294  1.00  0.00    -0.337 N
ATOM     12  C   UNL     1      31.958  15.657  -4.370  1.00  0.00     0.089 A
ATOM     13  C   UNL     1      31.600  14.928  -5.500  1.00  0.00     0.066 A
ATOM     14  C   UNL     1      32.727  15.047  -3.372  1.00  0.00     0.031 A
ATOM     15  C   UNL     1      31.831  13.557  -5.631  1.00  0.00     0.033 A
ATOM     16  C   UNL     1      32.968  13.671  -3.468  1.00  0.00     0.007 A
ATOM     17  H   UNL     1      30.530  15.680  -7.190  1.00  0.00     0.168 HD
BRANCH   9  18
ATOM     18  C   UNL     1      29.843  18.147  -6.011  1.00  0.00     0.151 A
ATOM     19  C   UNL     1      28.424  18.177  -6.032  1.00  0.00     0.092 A
ATOM     20  C   UNL     1      28.113  19.501  -6.231  1.00  0.00     0.132 A
ATOM     21  N   UNL     1      29.302  20.126  -6.487  1.00  0.00    -0.283 N
ATOM     22  N   UNL     1      30.372  19.315  -6.413  1.00  0.00    -0.170 NA
ATOM     23  H   UNL     1      29.455  21.099  -6.734  1.00  0.00     0.189 HD
BRANCH  19  24
ATOM     24  N   UNL     1      27.483  17.162  -5.959  1.00  0.00    -0.304 N
ATOM     25  O   UNL     1      28.113  16.109  -7.930  1.00  0.00    -0.248 OA
ATOM     26  C   UNL     1      27.451  16.141  -6.898  1.00  0.00     0.319 C
ATOM     27  N   UNL     1      26.480  15.205  -6.599  1.00  0.00    -0.330 N
ATOM     28  H   UNL     1      26.629  17.350  -5.460  1.00  0.00     0.172 HD
ATOM     29  H   UNL     1      26.139  15.161  -5.650  1.00  0.00     0.166 HD
BRANCH  27  30
ATOM     30  C   UNL     1      26.054  14.180  -7.532  1.00  0.00     0.065 C
ATOM     31  C   UNL     1      24.559  13.879  -7.564  1.00  0.00     0.033 C
ATOM     32  C   UNL     1      25.189  14.584  -8.717  1.00  0.00     0.033 C
ATOM     33  G   UNL     1      26.988  12.976  -7.670  1.00  0.00     0.000 C
ENDBRANCH  27  30
ENDBRANCH  19  24
ENDBRANCH   9  18
ENDBRANCH   7   8
ENDBRANCH   1   7
BRANCH   6  34
ATOM     34  C   UNL     1      32.483   8.494  -2.865  1.00  0.00     0.104 C
BRANCH  34  35
ATOM     35  N   UNL     1      33.064   8.939  -1.590  1.00  0.00    -0.293 NA
ATOM     36  H   UNL     1      32.655   9.822  -1.294  1.00  0.00     0.125 HD
BRANCH  35  37
ATOM     37  C   UNL     1      34.502   9.157  -1.764  1.00  0.00     0.244 C
BRANCH  37  38
ATOM     38  O   UNL     1      35.004   9.827  -0.616  1.00  0.00    -0.364 OA
BRANCH  38  39
ATOM     39  C   UNL     1      35.980  10.820  -0.954  1.00  0.00     0.190 C
ATOM     40  G   UNL     1      35.410  11.942  -1.824  1.00  0.00     0.000 C
ENDBRANCH  38  39
ENDBRANCH  37  38
ENDBRANCH  35  37
ENDBRANCH  34  35
ENDBRANCH   6  34
TORSDOF 0
ENDMDL
MODEL 8
REMARK VINA RESULT:      -7.6      1.734      3.985
REMARK SMILES O=C1Nc2c[nH]nc2-c2nc3ccc(cc3[nH]2)CN2CCOC[C@H]2CNCOCC2(CC2)N1
REMARK SMILES IDX 19 1 20 2 21 3 22 4 23 5 24 6 18 7 14 8 9 9 10 10 17 11
REMARK SMILES IDX 11 12 16 13 12 14 15 15 13 16 8 18 4 19 5 20 6 21 7 22 3 24
REMARK SMILES IDX 1 25 2 26 33 27 30 30 31 31 32 32 25 34 26 35 27 37 28 38
REMARK SMILES IDX 29 39
REMARK H PARENT 17 17 6 23 3 28 33 29 26 36
REMARK Flexibility Score:  190.900
ROOT
ATOM      1  N   UNL     1      32.966  10.660  -3.658  1.00  0.00    -0.290 NA
ATOM      2  C   UNL     1      34.155  10.074  -2.973  1.00  0.00     0.113 C
ATOM      3  C   UNL     1      33.842   8.929  -1.979  1.00  0.00     0.175 C
ATOM      4  O   UNL     1      32.535   9.053  -1.414  1.00  0.00    -0.378 OA
ATOM      5  C   UNL     1      31.503   9.001  -2.425  1.00  0.00     0.180 C
ATOM      6  C   UNL     1      31.975   9.536  -3.801  1.00  0.00     0.096 C
ENDROOT
BRANCH   1   7
ATOM      7  C   UNL     1      32.508  11.820  -2.834  1.00  0.00     0.120 C
BRANCH   7   8
ATOM      8  C   UNL     1      32.736  13.184  -3.453  1.00  0.00    -0.032 A
ATOM      9  C   UNL     1      31.459  17.079  -5.323  1.00  0.00     0.161 A
ATOM     10  N   UNL     1      32.429  17.183  -4.436  1.00  0.00    -0.227 NA
ATOM     11  N   UNL     1      31.247  15.773  -5.677  1.00  0.00    -0.337 N
ATOM     12  C   UNL     1      32.761  15.891  -4.121  1.00  0.00     0.089 A
ATOM     13  C   UNL     1      31.953  14.987  -4.803  1.00  0.00     0.066 A
ATOM     14  C   UNL     1      33.703  15.416  -3.201  1.00  0.00     0.031 A
ATOM     15  C   UNL     1      31.914  13.623  -4.510  1.00  0.00     0.033 A
ATOM     16  C   UNL     1      33.683  14.054  -2.877  1.00  0.00     0.007 A
ATOM     17  H   UNL     1      30.531  15.475  -6.322  1.00  0.00     0.168 HD
BRANCH   9  18
ATOM     18  C   UNL     1      30.648  18.265  -5.929  1.00  0.00     0.151 A
ATOM     19  C   UNL     1      29.349  18.204  -6.498  1.00  0.00     0.092 A
ATOM     20  C   UNL     1      28.960  19.518  -6.602  1.00  0.00     0.132 A
ATOM     21  N   UNL     1      30.063  20.257  -6.277  1.00  0.00    -0.283 N
ATOM     22  N   UNL     1      31.126  19.520  -5.914  1.00  0.00    -0.170 NA
ATOM     23  H   UNL     1      30.164  21.267  -6.297  1.00  0.00     0.189 HD
BRANCH  19  24
ATOM     24  N   UNL     1      28.594  17.133  -6.950  1.00  0.00    -0.304 N
ATOM     25  O   UNL     1      28.182  16.226  -4.852  1.00  0.00    -0.248 OA
ATOM     26  C   UNL     1      27.994  16.249  -6.064  1.00  0.00     0.319 C
ATOM     27  N   UNL     1      27.240  15.299  -6.725  1.00  0.00    -0.330 N
ATOM     28  H   UNL     1      28.774  16.793  -7.881  1.00  0.00     0.172 HD
ATOM     29  H   UNL     1      26.943  15.501  -7.669  1.00  0.00     0.166 HD
BRANCH  27  30
ATOM     30  C   UNL     1      26.717  14.112  -6.077  1.00  0.00     0.065 C
ATOM     31  C   UNL     1      26.821  12.813  -6.869  1.00  0.00     0.033 C
ATOM     32  C   UNL     1      27.687  13.013  -5.671  1.00  0.00     0.033 C
ATOM     33  G   UNL     1      25.434  14.307  -5.267  1.00  0.00     0.000 C
ENDBRANCH  27  30
ENDBRANCH  19  24
ENDBRANCH   9  18
ENDBRANCH   7   8
ENDBRANCH   1   7
BRANCH   6  34
ATOM     34  C   UNL     1      30.822   9.777  -4.815  1.00  0.00     0.104 C
BRANCH  34  35
ATOM     35  N   UNL     1      29.467   9.708  -4.251  1.00  0.00    -0.293 NA
ATOM     36  H   UNL     1      29.331   8.841  -3.737  1.00  0.00     0.125 HD
BRANCH  35  37
ATOM     37  C   UNL     1      28.488   9.730  -5.341  1.00  0.00     0.244 C
BRANCH  37  38
ATOM     38  O   UNL     1      27.188   9.575  -4.790  1.00  0.00    -0.364 OA
BRANCH  38  39
ATOM     39  C   UNL     1      26.597   8.319  -5.145  1.00  0.00     0.190 C
ATOM     40  G   UNL     1      26.815   7.954  -6.615  1.00  0.00     0.000 C
ENDBRANCH  38  39
ENDBRANCH  37  38
ENDBRANCH  35  37
ENDBRANCH  34  35
ENDBRANCH   6  34
TORSDOF 0
ENDMDL
MODEL 9
REMARK VINA RESULT:      -7.6      1.813      4.028
REMARK SMILES O=C1Nc2c[nH]nc2-c2nc3ccc(cc3[nH]2)CN2CCOC[C@H]2CNCOCC2(CC2)N1
REMARK SMILES IDX 19 1 20 2 21 3 22 4 23 5 24 6 18 7 14 8 9 9 10 10 17 11
REMARK SMILES IDX 11 12 16 13 12 14 15 15 13 16 8 18 4 19 5 20 6 21 7 22 3 24
REMARK SMILES IDX 1 25 2 26 33 27 30 30 31 31 32 32 25 34 26 35 27 37 28 38
REMARK SMILES IDX 29 39
REMARK H PARENT 17 17 6 23 3 28 33 29 26 36
REMARK Flexibility Score:  190.900
ROOT
ATOM      1  N   UNL     1      33.576  10.567  -3.429  1.00  0.00    -0.290 NA
ATOM      2  C   UNL     1      34.910  10.100  -2.954  1.00  0.00     0.113 C
ATOM      3  C   UNL     1      34.874   9.101  -1.772  1.00  0.00     0.175 C
ATOM      4  O   UNL     1      33.717   9.283  -0.952  1.00  0.00    -0.378 OA
ATOM      5  C   UNL     1      32.493   9.075  -1.693  1.00  0.00     0.180 C
ATOM      6  C   UNL     1      32.629   9.419  -3.198  1.00  0.00     0.096 C
ENDROOT
BRANCH   1   7
ATOM      7  C   UNL     1      33.256  11.824  -2.686  1.00  0.00     0.120 C
BRANCH   7   8
ATOM      8  C   UNL     1      32.649  12.933  -3.520  1.00  0.00    -0.032 A
ATOM      9  C   UNL     1      32.386  17.116  -5.173  1.00  0.00     0.161 A
ATOM     10  N   UNL     1      32.149  16.159  -6.049  1.00  0.00    -0.227 NA
ATOM     11  N   UNL     1      32.389  16.629  -3.893  1.00  0.00    -0.337 N
ATOM     12  C   UNL     1      32.124  15.004  -5.313  1.00  0.00     0.089 A
ATOM     13  C   UNL     1      32.386  15.260  -3.971  1.00  0.00     0.066 A
ATOM     14  C   UNL     1      31.950  13.682  -5.741  1.00  0.00     0.031 A
ATOM     15  C   UNL     1      32.645  14.256  -3.036  1.00  0.00     0.033 A
ATOM     16  C   UNL     1      32.213  12.651  -4.830  1.00  0.00     0.007 A
ATOM     17  H   UNL     1      32.578  17.193  -3.078  1.00  0.00     0.168 HD
BRANCH   9  18
ATOM     18  C   UNL     1      32.619  18.621  -5.509  1.00  0.00     0.151 A
ATOM     19  C   UNL     1      31.703  19.504  -6.137  1.00  0.00     0.092 A
ATOM     20  C   UNL     1      32.239  20.754  -5.935  1.00  0.00     0.132 A
ATOM     21  N   UNL     1      33.473  20.542  -5.384  1.00  0.00    -0.283 N
ATOM     22  N   UNL     1      33.755  19.247  -5.161  1.00  0.00    -0.170 NA
ATOM     23  H   UNL     1      34.178  21.234  -5.150  1.00  0.00     0.189 HD
BRANCH  19  24
ATOM     24  N   UNL     1      30.555  19.263  -6.875  1.00  0.00    -0.304 N
ATOM     25  O   UNL     1      29.101  19.258  -5.065  1.00  0.00    -0.248 OA
ATOM     26  C   UNL     1      29.305  19.232  -6.274  1.00  0.00     0.319 C
ATOM     27  N   UNL     1      28.298  19.041  -7.201  1.00  0.00    -0.330 N
ATOM     28  H   UNL     1      30.653  18.768  -7.747  1.00  0.00     0.172 HD
ATOM     29  H   UNL     1      28.497  19.254  -8.167  1.00  0.00     0.166 HD
BRANCH  27  30
ATOM     30  C   UNL     1      26.934  18.715  -6.833  1.00  0.00     0.065 C
ATOM     31  C   UNL     1      26.345  17.465  -7.478  1.00  0.00     0.033 C
ATOM     32  C   UNL     1      26.677  17.452  -6.024  1.00  0.00     0.033 C
ATOM     33  G   UNL     1      25.985  19.905  -6.675  1.00  0.00     0.000 C
ENDBRANCH  27  30
ENDBRANCH  19  24
ENDBRANCH   9  18
ENDBRANCH   7   8
ENDBRANCH   1   7
BRANCH   6  34
ATOM     34  C   UNL     1      31.273   9.500  -3.953  1.00  0.00     0.104 C
BRANCH  34  35
ATOM     35  N   UNL     1      30.700   8.207  -4.352  1.00  0.00    -0.293 NA
ATOM     36  H   UNL     1      31.410   7.607  -4.764  1.00  0.00     0.125 HD
BRANCH  35  37
ATOM     37  C   UNL     1      29.669   8.429  -5.369  1.00  0.00     0.244 C
BRANCH  37  38
ATOM     38  O   UNL     1      29.479   7.223  -6.097  1.00  0.00    -0.364 OA
BRANCH  38  39
ATOM     39  C   UNL     1      29.454   6.074  -5.243  1.00  0.00     0.190 C
ATOM     40  G   UNL     1      28.335   5.092  -5.599  1.00  0.00     0.000 C
ENDBRANCH  38  39
ENDBRANCH  37  38
ENDBRANCH  35  37
ENDBRANCH  34  35
ENDBRANCH   6  34
TORSDOF 0
ENDMDL
