MODEL 1
REMARK VINA RESULT:      -8.4      0.000      0.000
REMARK SMILES N#C[C@@H]1C[C@H]2COCC3(CC3)c3cnc4[nH]cc(c4n3)C(=O)N[C@H](C3CC3)C(=O)N2C1
REMARK SMILES IDX 12 1 13 2 14 3 15 4 16 5 17 6 18 7 19 8 20 9 21 11 23 12
REMARK SMILES IDX 22 13 24 15 28 16 29 17 30 18 1 19 2 20 3 21 4 22 31 23 5 24
REMARK SMILES IDX 25 26 26 27 27 28 9 29 10 30 11 31 8 32 7 33 6 34
REMARK H PARENT 16 10 23 14
REMARK Flexibility Score:  122.900
ROOT
ATOM      1  C   UNL     1      32.998  11.037  -2.985  1.00  0.00     0.068 A
ATOM      2  C   UNL     1      34.351  10.797  -2.674  1.00  0.00     0.138 A
ATOM      3  N   UNL     1      35.316  11.736  -2.432  1.00  0.00    -0.235 NA
ATOM      4  C   UNL     1      34.805  12.973  -2.566  1.00  0.00     0.156 A
ATOM      5  N   UNL     1      35.485  14.154  -2.464  1.00  0.00    -0.344 N
ATOM      6  C   UNL     1      34.634  15.202  -2.738  1.00  0.00     0.100 A
ATOM      7  C   UNL     1      33.369  14.687  -2.987  1.00  0.00     0.085 A
ATOM      8  C   UNL     1      33.487  13.277  -2.858  1.00  0.00     0.120 A
ATOM      9  N   UNL     1      32.545  12.313  -3.026  1.00  0.00    -0.246 NA
ATOM     10  H   UNL     1      36.472  14.222  -2.261  1.00  0.00     0.168 HD
ENDROOT
BRANCH   7  11
ATOM     11  C   UNL     1      32.180  15.437  -3.373  1.00  0.00     0.255 C
ATOM     12  N   UNL     1      31.861  15.289  -4.693  1.00  0.00    -0.340 N
ATOM     13  O   UNL     1      31.566  16.155  -2.593  1.00  0.00    -0.269 OA
ATOM     14  H   UNL     1      32.442  14.662  -5.251  1.00  0.00     0.164 HD
BRANCH  12  15
ATOM     15  C   UNL     1      30.903  16.097  -5.423  1.00  0.00     0.175 C
BRANCH  15  16
ATOM     16  C   UNL     1      31.807  17.031  -6.270  1.00  0.00     0.245 C
ATOM     17  O   UNL     1      32.692  16.565  -6.996  1.00  0.00    -0.272 OA
BRANCH  16  18
ATOM     18  N   UNL     1      31.686  18.394  -6.084  1.00  0.00    -0.334 N
ATOM     19  N   UNL     1      34.462  21.861  -4.769  1.00  0.00    -0.198 NA
ATOM     20  C   UNL     1      33.514  21.323  -5.168  1.00  0.00     0.067 C
ATOM     21  C   UNL     1      32.319  20.645  -5.673  1.00  0.00     0.114 C
ATOM     22  C   UNL     1      31.426  20.112  -4.540  1.00  0.00     0.048 C
ATOM     23  C   UNL     1      32.669  19.392  -6.481  1.00  0.00     0.138 C
ATOM     24  C   UNL     1      30.665  18.961  -5.203  1.00  0.00     0.112 C
ATOM     25  G   UNL     1      29.417  19.495  -5.959  1.00  0.00     0.000 C
ENDBRANCH  16  18
ENDBRANCH  15  16
BRANCH  15  26
ATOM     26  C   UNL     1      30.048  15.215  -6.291  1.00  0.00     0.021 C
ATOM     27  C   UNL     1      29.369  13.992  -5.725  1.00  0.00     0.006 C
ATOM     28  C   UNL     1      28.549  15.190  -6.113  1.00  0.00     0.006 C
ENDBRANCH  15  26
ENDBRANCH  12  15
ENDBRANCH   7  11
BRANCH   1  29
ATOM     29  C   UNL     1      31.985   9.913  -3.302  1.00  0.00     0.038 C
ATOM     30  C   UNL     1      32.415   8.453  -3.300  1.00  0.00     0.017 C
ATOM     31  C   UNL     1      31.582   8.980  -2.168  1.00  0.00     0.017 C
BRANCH  29  32
ATOM     32  C   UNL     1      30.892  10.282  -4.311  1.00  0.00     0.173 C
BRANCH  32  33
ATOM     33  O   UNL     1      30.609   9.152  -5.133  1.00  0.00    -0.378 OA
BRANCH  33  34
ATOM     34  C   UNL     1      29.332   9.154  -5.760  1.00  0.00     0.185 C
ATOM     35  G   UNL     1      28.326  10.240  -5.288  1.00  0.00     0.000 C
ENDBRANCH  33  34
ENDBRANCH  32  33
ENDBRANCH  29  32
ENDBRANCH   1  29
TORSDOF 1
ENDMDL
MODEL 2
REMARK VINA RESULT:      -8.0      1.532      2.054
REMARK SMILES N#C[C@@H]1C[C@H]2COCC3(CC3)c3cnc4[nH]cc(c4n3)C(=O)N[C@H](C3CC3)C(=O)N2C1
REMARK SMILES IDX 12 1 13 2 14 3 15 4 16 5 17 6 18 7 19 8 20 9 21 11 23 12
REMARK SMILES IDX 22 13 24 15 28 16 29 17 30 18 1 19 2 20 3 21 4 22 31 23 5 24
REMARK SMILES IDX 25 26 26 27 27 28 9 29 10 30 11 31 8 32 7 33 6 34
REMARK H PARENT 16 10 23 14
REMARK Flexibility Score:  122.900
ROOT
ATOM      1  C   UNL     1      33.686  11.273  -2.601  1.00  0.00     0.068 A
ATOM      2  C   UNL     1      34.993  11.763  -2.410  1.00  0.00     0.138 A
ATOM      3  N   UNL     1      35.385  13.073  -2.408  1.00  0.00    -0.235 NA
ATOM      4  C   UNL     1      34.334  13.874  -2.656  1.00  0.00     0.156 A
ATOM      5  N   UNL     1      34.356  15.234  -2.794  1.00  0.00    -0.344 N
ATOM      6  C   UNL     1      33.095  15.686  -3.115  1.00  0.00     0.100 A
ATOM      7  C   UNL     1      32.234  14.597  -3.150  1.00  0.00     0.085 A
ATOM      8  C   UNL     1      33.026  13.459  -2.841  1.00  0.00     0.120 A
ATOM      9  N   UNL     1      32.668  12.152  -2.769  1.00  0.00    -0.246 NA
ATOM     10  H   UNL     1      35.190  15.796  -2.712  1.00  0.00     0.168 HD
ENDROOT
BRANCH   7  11
ATOM     11  C   UNL     1      30.820  14.612  -3.504  1.00  0.00     0.255 C
ATOM     12  N   UNL     1      30.598  14.953  -4.808  1.00  0.00    -0.340 N
ATOM     13  O   UNL     1      29.930  14.382  -2.693  1.00  0.00    -0.269 OA
ATOM     14  H   UNL     1      31.416  15.121  -5.396  1.00  0.00     0.164 HD
BRANCH  12  15
ATOM     15  C   UNL     1      29.313  15.300  -5.381  1.00  0.00     0.175 C
BRANCH  15  16
ATOM     16  C   UNL     1      29.640  16.547  -6.243  1.00  0.00     0.245 C
ATOM     17  O   UNL     1      29.048  16.751  -7.309  1.00  0.00    -0.272 OA
BRANCH  16  18
ATOM     18  N   UNL     1      30.699  17.344  -5.856  1.00  0.00    -0.334 N
ATOM     19  N   UNL     1      31.239  21.615  -4.147  1.00  0.00    -0.198 NA
ATOM     20  C   UNL     1      31.517  20.543  -4.492  1.00  0.00     0.067 C
ATOM     21  C   UNL     1      31.868  19.188  -4.925  1.00  0.00     0.114 C
ATOM     22  C   UNL     1      32.103  19.102  -6.442  1.00  0.00     0.048 C
ATOM     23  C   UNL     1      30.731  18.194  -4.674  1.00  0.00     0.138 C
ATOM     24  C   UNL     1      31.813  17.633  -6.760  1.00  0.00     0.112 C
ATOM     25  G   UNL     1      33.071  16.759  -6.498  1.00  0.00     0.000 C
ENDBRANCH  16  18
ENDBRANCH  15  16
BRANCH  15  26
ATOM     26  C   UNL     1      28.805  14.161  -6.223  1.00  0.00     0.021 C
ATOM     27  C   UNL     1      28.355  12.868  -5.589  1.00  0.00     0.006 C
ATOM     28  C   UNL     1      27.341  13.792  -6.205  1.00  0.00     0.006 C
ENDBRANCH  15  26
ENDBRANCH  12  15
ENDBRANCH   7  11
BRANCH   1  29
ATOM     29  C   UNL     1      33.338   9.767  -2.645  1.00  0.00     0.038 C
ATOM     30  C   UNL     1      34.398   8.714  -2.352  1.00  0.00     0.017 C
ATOM     31  C   UNL     1      33.337   8.999  -1.330  1.00  0.00     0.017 C
BRANCH  29  32
ATOM     32  C   UNL     1      32.275   9.371  -3.675  1.00  0.00     0.173 C
BRANCH  32  33
ATOM     33  O   UNL     1      30.979   9.580  -3.118  1.00  0.00    -0.378 OA
BRANCH  33  34
ATOM     34  C   UNL     1      29.961   9.932  -4.049  1.00  0.00     0.185 C
ATOM     35  G   UNL     1      29.969   9.178  -5.407  1.00  0.00     0.000 C
ENDBRANCH  33  34
ENDBRANCH  32  33
ENDBRANCH  29  32
ENDBRANCH   1  29
TORSDOF 1
ENDMDL
MODEL 3
REMARK VINA RESULT:      -8.0      1.885      4.344
REMARK SMILES N#C[C@@H]1C[C@H]2COCC3(CC3)c3cnc4[nH]cc(c4n3)C(=O)N[C@H](C3CC3)C(=O)N2C1
REMARK SMILES IDX 12 1 13 2 14 3 15 4 16 5 17 6 18 7 19 8 20 9 21 11 23 12
REMARK SMILES IDX 22 13 24 15 28 16 29 17 30 18 1 19 2 20 3 21 4 22 31 23 5 24
REMARK SMILES IDX 25 26 26 27 27 28 9 29 10 30 11 31 8 32 7 33 6 34
REMARK H PARENT 16 10 23 14
REMARK Flexibility Score:  122.900
ROOT
ATOM      1  C   UNL     1      30.555  10.679  -4.241  1.00  0.00     0.068 A
ATOM      2  C   UNL     1      29.298  10.044  -4.282  1.00  0.00     0.138 A
ATOM      3  N   UNL     1      28.132  10.563  -4.775  1.00  0.00    -0.235 NA
ATOM      4  C   UNL     1      28.329  11.822  -5.204  1.00  0.00     0.156 A
ATOM      5  N   UNL     1      27.382  12.676  -5.698  1.00  0.00    -0.344 N
ATOM      6  C   UNL     1      27.956  13.900  -5.962  1.00  0.00     0.100 A
ATOM      7  C   UNL     1      29.311  13.823  -5.665  1.00  0.00     0.085 A
ATOM      8  C   UNL     1      29.537  12.498  -5.203  1.00  0.00     0.120 A
ATOM      9  N   UNL     1      30.685  11.922  -4.765  1.00  0.00    -0.246 NA
ATOM     10  H   UNL     1      26.407  12.437  -5.803  1.00  0.00     0.168 HD
ENDROOT
BRANCH   7  11
ATOM     11  C   UNL     1      30.285  14.904  -5.742  1.00  0.00     0.255 C
ATOM     12  N   UNL     1      31.172  14.900  -4.703  1.00  0.00    -0.340 N
ATOM     13  O   UNL     1      30.271  15.748  -6.631  1.00  0.00    -0.269 OA
ATOM     14  H   UNL     1      31.093  14.146  -4.019  1.00  0.00     0.164 HD
BRANCH  12  15
ATOM     15  C   UNL     1      32.081  15.978  -4.368  1.00  0.00     0.175 C
BRANCH  15  16
ATOM     16  C   UNL     1      31.127  17.177  -4.126  1.00  0.00     0.245 C
ATOM     17  O   UNL     1      30.134  17.057  -3.401  1.00  0.00    -0.272 OA
BRANCH  16  18
ATOM     18  N   UNL     1      31.342  18.333  -4.850  1.00  0.00    -0.334 N
ATOM     19  N   UNL     1      34.520  21.701  -4.929  1.00  0.00    -0.198 NA
ATOM     20  C   UNL     1      33.600  21.072  -5.251  1.00  0.00     0.067 C
ATOM     21  C   UNL     1      32.440  20.277  -5.658  1.00  0.00     0.114 C
ATOM     22  C   UNL     1      31.171  20.651  -4.875  1.00  0.00     0.048 C
ATOM     23  C   UNL     1      32.630  18.788  -5.354  1.00  0.00     0.138 C
ATOM     24  C   UNL     1      30.323  19.378  -4.949  1.00  0.00     0.112 C
ATOM     25  G   UNL     1      29.514  19.336  -6.275  1.00  0.00     0.000 C
ENDBRANCH  16  18
ENDBRANCH  15  16
BRANCH  15  26
ATOM     26  C   UNL     1      32.856  15.626  -3.127  1.00  0.00     0.021 C
ATOM     27  C   UNL     1      32.629  14.315  -2.416  1.00  0.00     0.006 C
ATOM     28  C   UNL     1      33.911  14.546  -3.166  1.00  0.00     0.006 C
ENDBRANCH  15  26
ENDBRANCH  12  15
ENDBRANCH   7  11
BRANCH   1  29
ATOM     29  C   UNL     1      31.813  10.038  -3.611  1.00  0.00     0.038 C
ATOM     30  C   UNL     1      31.705   9.174  -2.362  1.00  0.00     0.017 C
ATOM     31  C   UNL     1      31.954   8.524  -3.691  1.00  0.00     0.017 C
BRANCH  29  32
ATOM     32  C   UNL     1      33.100  10.857  -3.743  1.00  0.00     0.173 C
BRANCH  32  33
ATOM     33  O   UNL     1      33.646  11.089  -2.446  1.00  0.00    -0.378 OA
BRANCH  33  34
ATOM     34  C   UNL     1      35.066  11.048  -2.361  1.00  0.00     0.185 C
ATOM     35  G   UNL     1      35.722  11.909  -1.246  1.00  0.00     0.000 C
ENDBRANCH  33  34
ENDBRANCH  32  33
ENDBRANCH  29  32
ENDBRANCH   1  29
TORSDOF 1
ENDMDL
MODEL 4
REMARK VINA RESULT:      -8.0      2.256      4.318
REMARK SMILES N#C[C@@H]1C[C@H]2COCC3(CC3)c3cnc4[nH]cc(c4n3)C(=O)N[C@H](C3CC3)C(=O)N2C1
REMARK SMILES IDX 12 1 13 2 14 3 15 4 16 5 17 6 18 7 19 8 20 9 21 11 23 12
REMARK SMILES IDX 22 13 24 15 28 16 29 17 30 18 1 19 2 20 3 21 4 22 31 23 5 24
REMARK SMILES IDX 25 26 26 27 27 28 9 29 10 30 11 31 8 32 7 33 6 34
REMARK H PARENT 16 10 23 14
REMARK Flexibility Score:  122.900
ROOT
ATOM      1  C   UNL     1      31.850   9.864  -3.724  1.00  0.00     0.068 A
ATOM      2  C   UNL     1      31.259   8.721  -4.298  1.00  0.00     0.138 A
ATOM      3  N   UNL     1      30.093   8.670  -5.012  1.00  0.00    -0.235 NA
ATOM      4  C   UNL     1      29.533   9.891  -5.074  1.00  0.00     0.156 A
ATOM      5  N   UNL     1      28.334  10.213  -5.646  1.00  0.00    -0.344 N
ATOM      6  C   UNL     1      28.069  11.549  -5.443  1.00  0.00     0.100 A
ATOM      7  C   UNL     1      29.138  12.109  -4.756  1.00  0.00     0.085 A
ATOM      8  C   UNL     1      30.064  11.054  -4.543  1.00  0.00     0.120 A
ATOM      9  N   UNL     1      31.260  11.071  -3.899  1.00  0.00    -0.246 NA
ATOM     10  H   UNL     1      27.730   9.546  -6.104  1.00  0.00     0.168 HD
ENDROOT
BRANCH   7  11
ATOM     11  C   UNL     1      29.250  13.484  -4.285  1.00  0.00     0.255 C
ATOM     12  N   UNL     1      29.202  14.402  -5.296  1.00  0.00    -0.340 N
ATOM     13  O   UNL     1      29.414  13.770  -3.105  1.00  0.00    -0.269 OA
ATOM     14  H   UNL     1      29.059  14.050  -6.244  1.00  0.00     0.164 HD
BRANCH  12  15
ATOM     15  C   UNL     1      29.540  15.806  -5.176  1.00  0.00     0.175 C
BRANCH  15  16
ATOM     16  C   UNL     1      31.001  15.859  -5.695  1.00  0.00     0.245 C
ATOM     17  O   UNL     1      31.562  14.839  -6.106  1.00  0.00    -0.272 OA
BRANCH  16  18
ATOM     18  N   UNL     1      31.695  17.045  -5.557  1.00  0.00    -0.334 N
ATOM     19  N   UNL     1      30.788  21.300  -3.969  1.00  0.00    -0.198 NA
ATOM     20  C   UNL     1      31.400  20.406  -4.382  1.00  0.00     0.067 C
ATOM     21  C   UNL     1      32.174  19.276  -4.902  1.00  0.00     0.114 C
ATOM     22  C   UNL     1      32.086  19.163  -6.432  1.00  0.00     0.048 C
ATOM     23  C   UNL     1      31.631  17.933  -4.405  1.00  0.00     0.138 C
ATOM     24  C   UNL     1      32.365  17.680  -6.692  1.00  0.00     0.112 C
ATOM     25  G   UNL     1      33.895  17.412  -6.742  1.00  0.00     0.000 C
ENDBRANCH  16  18
ENDBRANCH  15  16
BRANCH  15  26
ATOM     26  C   UNL     1      28.616  16.629  -6.031  1.00  0.00     0.021 C
ATOM     27  C   UNL     1      27.118  16.489  -5.913  1.00  0.00     0.006 C
ATOM     28  C   UNL     1      27.793  17.737  -5.418  1.00  0.00     0.006 C
ENDBRANCH  15  26
ENDBRANCH  12  15
ENDBRANCH   7  11
BRANCH   1  29
ATOM     29  C   UNL     1      33.145   9.822  -2.882  1.00  0.00     0.038 C
ATOM     30  C   UNL     1      33.117   9.362  -1.431  1.00  0.00     0.017 C
ATOM     31  C   UNL     1      33.689   8.457  -2.482  1.00  0.00     0.017 C
BRANCH  29  32
ATOM     32  C   UNL     1      34.178  10.903  -3.216  1.00  0.00     0.173 C
BRANCH  32  33
ATOM     33  O   UNL     1      34.097  11.947  -2.249  1.00  0.00    -0.378 OA
BRANCH  33  34
ATOM     34  C   UNL     1      35.273  12.732  -2.092  1.00  0.00     0.185 C
ATOM     35  G   UNL     1      35.243  14.162  -2.699  1.00  0.00     0.000 C
ENDBRANCH  33  34
ENDBRANCH  32  33
ENDBRANCH  29  32
ENDBRANCH   1  29
TORSDOF 1
ENDMDL
MODEL 5
REMARK VINA RESULT:      -7.9      2.189      4.408
REMARK SMILES N#C[C@@H]1C[C@H]2COCC3(CC3)c3cnc4[nH]cc(c4n3)C(=O)N[C@H](C3CC3)C(=O)N2C1
REMARK SMILES IDX 12 1 13 2 14 3 15 4 16 5 17 6 18 7 19 8 20 9 21 11 23 12
REMARK SMILES IDX 22 13 24 15 28 16 29 17 30 18 1 19 2 20 3 21 4 22 31 23 5 24
REMARK SMILES IDX 25 26 26 27 27 28 9 29 10 30 11 31 8 32 7 33 6 34
REMARK H PARENT 16 10 23 14
REMARK Flexibility Score:  122.900
ROOT
ATOM      1  C   UNL     1      32.141  10.883  -3.602  1.00  0.00     0.068 A
ATOM      2  C   UNL     1      31.803   9.522  -3.740  1.00  0.00     0.138 A
ATOM      3  N   UNL     1      30.659   9.013  -4.290  1.00  0.00    -0.235 NA
ATOM      4  C   UNL     1      29.840  10.011  -4.668  1.00  0.00     0.156 A
ATOM      5  N   UNL     1      28.585   9.884  -5.195  1.00  0.00    -0.344 N
ATOM      6  C   UNL     1      28.036  11.133  -5.385  1.00  0.00     0.100 A
ATOM      7  C   UNL     1      28.972  12.087  -5.007  1.00  0.00     0.085 A
ATOM      8  C   UNL     1      30.115  11.364  -4.571  1.00  0.00     0.120 A
ATOM      9  N   UNL     1      31.294  11.826  -4.080  1.00  0.00    -0.246 NA
ATOM     10  H   UNL     1      28.133   8.999  -5.367  1.00  0.00     0.168 HD
ENDROOT
BRANCH   7  11
ATOM     11  C   UNL     1      28.790  13.533  -4.991  1.00  0.00     0.255 C
ATOM     12  N   UNL     1      29.658  14.190  -5.817  1.00  0.00    -0.340 N
ATOM     13  O   UNL     1      27.968  14.090  -4.274  1.00  0.00    -0.269 OA
ATOM     14  H   UNL     1      30.300  13.623  -6.372  1.00  0.00     0.164 HD
BRANCH  12  15
ATOM     15  C   UNL     1      29.893  15.620  -5.824  1.00  0.00     0.175 C
BRANCH  15  16
ATOM     16  C   UNL     1      31.437  15.721  -5.926  1.00  0.00     0.245 C
ATOM     17  O   UNL     1      32.127  14.706  -6.072  1.00  0.00    -0.272 OA
BRANCH  16  18
ATOM     18  N   UNL     1      32.023  16.953  -5.713  1.00  0.00    -0.334 N
ATOM     19  N   UNL     1      30.733  21.010  -3.889  1.00  0.00    -0.198 NA
ATOM     20  C   UNL     1      31.424  20.200  -4.347  1.00  0.00     0.067 C
ATOM     21  C   UNL     1      32.298  19.175  -4.925  1.00  0.00     0.114 C
ATOM     22  C   UNL     1      32.227  19.145  -6.460  1.00  0.00     0.048 C
ATOM     23  C   UNL     1      31.875  17.763  -4.512  1.00  0.00     0.138 C
ATOM     24  C   UNL     1      32.638  17.711  -6.803  1.00  0.00     0.112 C
ATOM     25  G   UNL     1      34.186  17.583  -6.855  1.00  0.00     0.000 C
ENDBRANCH  16  18
ENDBRANCH  15  16
BRANCH  15  26
ATOM     26  C   UNL     1      29.216  16.243  -7.015  1.00  0.00     0.021 C
ATOM     27  C   UNL     1      27.728  16.104  -7.222  1.00  0.00     0.006 C
ATOM     28  C   UNL     1      28.308  17.437  -6.840  1.00  0.00     0.006 C
ENDBRANCH  15  26
ENDBRANCH  12  15
ENDBRANCH   7  11
BRANCH   1  29
ATOM     29  C   UNL     1      33.435  11.374  -2.914  1.00  0.00     0.038 C
ATOM     30  C   UNL     1      34.315  10.410  -2.130  1.00  0.00     0.017 C
ATOM     31  C   UNL     1      34.766  10.892  -3.478  1.00  0.00     0.017 C
BRANCH  29  32
ATOM     32  C   UNL     1      33.392  12.812  -2.387  1.00  0.00     0.173 C
BRANCH  32  33
ATOM     33  O   UNL     1      33.586  13.717  -3.471  1.00  0.00    -0.378 OA
BRANCH  33  34
ATOM     34  C   UNL     1      34.120  14.989  -3.120  1.00  0.00     0.185 C
ATOM     35  G   UNL     1      35.576  15.006  -2.578  1.00  0.00     0.000 C
ENDBRANCH  33  34
ENDBRANCH  32  33
ENDBRANCH  29  32
ENDBRANCH   1  29
TORSDOF 1
ENDMDL
MODEL 6
REMARK VINA RESULT:      -7.9      2.503      5.113
REMARK SMILES N#C[C@@H]1C[C@H]2COCC3(CC3)c3cnc4[nH]cc(c4n3)C(=O)N[C@H](C3CC3)C(=O)N2C1
REMARK SMILES IDX 12 1 13 2 14 3 15 4 16 5 17 6 18 7 19 8 20 9 21 11 23 12
REMARK SMILES IDX 22 13 24 15 28 16 29 17 30 18 1 19 2 20 3 21 4 22 31 23 5 24
REMARK SMILES IDX 25 26 26 27 27 28 9 29 10 30 11 31 8 32 7 33 6 34
REMARK H PARENT 16 10 23 14
REMARK Flexibility Score:  122.900
ROOT
ATOM      1  C   UNL     1      31.425   9.298  -3.969  1.00  0.00     0.068 A
ATOM      2  C   UNL     1      31.178   7.938  -4.239  1.00  0.00     0.138 A
ATOM      3  N   UNL     1      30.110   7.418  -4.917  1.00  0.00    -0.235 NA
ATOM      4  C   UNL     1      29.267   8.401  -5.283  1.00  0.00     0.156 A
ATOM      5  N   UNL     1      28.066   8.254  -5.917  1.00  0.00    -0.344 N
ATOM      6  C   UNL     1      27.463   9.485  -6.055  1.00  0.00     0.100 A
ATOM      7  C   UNL     1      28.311  10.451  -5.529  1.00  0.00     0.085 A
ATOM      8  C   UNL     1      29.456   9.754  -5.059  1.00  0.00     0.120 A
ATOM      9  N   UNL     1      30.565  10.234  -4.440  1.00  0.00    -0.246 NA
ATOM     10  H   UNL     1      27.679   7.364  -6.194  1.00  0.00     0.168 HD
ENDROOT
BRANCH   7  11
ATOM     11  C   UNL     1      28.046  11.880  -5.417  1.00  0.00     0.255 C
ATOM     12  N   UNL     1      29.052  12.652  -5.926  1.00  0.00    -0.340 N
ATOM     13  O   UNL     1      27.040  12.328  -4.880  1.00  0.00    -0.269 OA
ATOM     14  H   UNL     1      29.844  12.171  -6.353  1.00  0.00     0.164 HD
BRANCH  12  15
ATOM     15  C   UNL     1      29.197  14.081  -5.731  1.00  0.00     0.175 C
BRANCH  15  16
ATOM     16  C   UNL     1      30.722  14.250  -5.504  1.00  0.00     0.245 C
ATOM     17  O   UNL     1      31.505  13.332  -5.770  1.00  0.00    -0.272 OA
BRANCH  16  18
ATOM     18  N   UNL     1      31.160  15.396  -4.871  1.00  0.00    -0.334 N
ATOM     19  N   UNL     1      30.183  19.919  -5.066  1.00  0.00    -0.198 NA
ATOM     20  C   UNL     1      30.656  18.929  -4.692  1.00  0.00     0.067 C
ATOM     21  C   UNL     1      31.253  17.677  -4.219  1.00  0.00     0.114 C
ATOM     22  C   UNL     1      32.505  17.287  -5.022  1.00  0.00     0.048 C
ATOM     23  C   UNL     1      30.310  16.485  -4.411  1.00  0.00     0.138 C
ATOM     24  C   UNL     1      32.575  15.768  -4.847  1.00  0.00     0.112 C
ATOM     25  G   UNL     1      33.292  15.403  -3.517  1.00  0.00     0.000 C
ENDBRANCH  16  18
ENDBRANCH  15  16
BRANCH  15  26
ATOM     26  C   UNL     1      28.734  14.813  -6.961  1.00  0.00     0.021 C
ATOM     27  C   UNL     1      27.405  14.494  -7.601  1.00  0.00     0.006 C
ATOM     28  C   UNL     1      27.593  15.799  -6.880  1.00  0.00     0.006 C
ENDBRANCH  15  26
ENDBRANCH  12  15
ENDBRANCH   7  11
BRANCH   1  29
ATOM     29  C   UNL     1      32.633   9.797  -3.143  1.00  0.00     0.038 C
ATOM     30  C   UNL     1      32.750   9.472  -1.660  1.00  0.00     0.017 C
ATOM     31  C   UNL     1      33.630   8.759  -2.644  1.00  0.00     0.017 C
BRANCH  29  32
ATOM     32  C   UNL     1      33.207  11.151  -3.573  1.00  0.00     0.173 C
BRANCH  32  33
ATOM     33  O   UNL     1      33.444  11.951  -2.417  1.00  0.00    -0.378 OA
BRANCH  33  34
ATOM     34  C   UNL     1      34.763  12.471  -2.291  1.00  0.00     0.185 C
ATOM     35  G   UNL     1      35.758  11.643  -1.432  1.00  0.00     0.000 C
ENDBRANCH  33  34
ENDBRANCH  32  33
ENDBRANCH  29  32
ENDBRANCH   1  29
TORSDOF 1
ENDMDL
MODEL 7
REMARK VINA RESULT:      -7.9      2.494      5.080
REMARK SMILES N#C[C@@H]1C[C@H]2COCC3(CC3)c3cnc4[nH]cc(c4n3)C(=O)N[C@H](C3CC3)C(=O)N2C1
REMARK SMILES IDX 12 1 13 2 14 3 15 4 16 5 17 6 18 7 19 8 20 9 21 11 23 12
REMARK SMILES IDX 22 13 24 15 28 16 29 17 30 18 1 19 2 20 3 21 4 22 31 23 5 24
REMARK SMILES IDX 25 26 26 27 27 28 9 29 10 30 11 31 8 32 7 33 6 34
REMARK H PARENT 16 10 23 14
REMARK Flexibility Score:  122.900
ROOT
ATOM      1  C   UNL     1      31.430   9.196  -3.931  1.00  0.00     0.068 A
ATOM      2  C   UNL     1      31.197   7.828  -4.175  1.00  0.00     0.138 A
ATOM      3  N   UNL     1      30.128   7.284  -4.834  1.00  0.00    -0.235 NA
ATOM      4  C   UNL     1      29.271   8.250  -5.208  1.00  0.00     0.156 A
ATOM      5  N   UNL     1      28.065   8.079  -5.828  1.00  0.00    -0.344 N
ATOM      6  C   UNL     1      27.446   9.300  -5.980  1.00  0.00     0.100 A
ATOM      7  C   UNL     1      28.288  10.284  -5.480  1.00  0.00     0.085 A
ATOM      8  C   UNL     1      29.446   9.609  -5.009  1.00  0.00     0.120 A
ATOM      9  N   UNL     1      30.554  10.113  -4.409  1.00  0.00    -0.246 NA
ATOM     10  H   UNL     1      27.686   7.179  -6.085  1.00  0.00     0.168 HD
ENDROOT
BRANCH   7  11
ATOM     11  C   UNL     1      28.006  11.712  -5.389  1.00  0.00     0.255 C
ATOM     12  N   UNL     1      29.012  12.488  -5.893  1.00  0.00    -0.340 N
ATOM     13  O   UNL     1      26.988  12.156  -4.872  1.00  0.00    -0.269 OA
ATOM     14  H   UNL     1      29.814  12.009  -6.304  1.00  0.00     0.164 HD
BRANCH  12  15
ATOM     15  C   UNL     1      29.139  13.920  -5.715  1.00  0.00     0.175 C
BRANCH  15  16
ATOM     16  C   UNL     1      30.673  14.125  -5.613  1.00  0.00     0.245 C
ATOM     17  O   UNL     1      31.449  13.181  -5.794  1.00  0.00    -0.272 OA
BRANCH  16  18
ATOM     18  N   UNL     1      31.137  15.352  -5.181  1.00  0.00    -0.334 N
ATOM     19  N   UNL     1      33.319  18.971  -7.075  1.00  0.00    -0.198 NA
ATOM     20  C   UNL     1      32.760  18.338  -6.280  1.00  0.00     0.067 C
ATOM     21  C   UNL     1      32.052  17.540  -5.277  1.00  0.00     0.114 C
ATOM     22  C   UNL     1      32.992  16.587  -4.520  1.00  0.00     0.048 C
ATOM     23  C   UNL     1      31.019  16.605  -5.913  1.00  0.00     0.138 C
ATOM     24  C   UNL     1      32.056  15.471  -4.049  1.00  0.00     0.112 C
ATOM     25  G   UNL     1      31.357  15.867  -2.718  1.00  0.00     0.000 C
ENDBRANCH  16  18
ENDBRANCH  15  16
BRANCH  15  26
ATOM     26  C   UNL     1      28.561  14.637  -6.905  1.00  0.00     0.021 C
ATOM     27  C   UNL     1      27.204  14.266  -7.451  1.00  0.00     0.006 C
ATOM     28  C   UNL     1      27.390  15.575  -6.738  1.00  0.00     0.006 C
ENDBRANCH  15  26
ENDBRANCH  12  15
ENDBRANCH   7  11
BRANCH   1  29
ATOM     29  C   UNL     1      32.640   9.723  -3.125  1.00  0.00     0.038 C
ATOM     30  C   UNL     1      32.773   9.429  -1.638  1.00  0.00     0.017 C
ATOM     31  C   UNL     1      33.652   8.705  -2.615  1.00  0.00     0.017 C
BRANCH  29  32
ATOM     32  C   UNL     1      33.196  11.074  -3.587  1.00  0.00     0.173 C
BRANCH  32  33
ATOM     33  O   UNL     1      33.312  11.945  -2.464  1.00  0.00    -0.378 OA
BRANCH  33  34
ATOM     34  C   UNL     1      34.479  12.758  -2.436  1.00  0.00     0.185 C
ATOM     35  G   UNL     1      35.608  12.322  -1.460  1.00  0.00     0.000 C
ENDBRANCH  33  34
ENDBRANCH  32  33
ENDBRANCH  29  32
ENDBRANCH   1  29
TORSDOF 1
ENDMDL
MODEL 8
REMARK VINA RESULT:      -7.8      2.462      8.500
REMARK SMILES N#C[C@@H]1C[C@H]2COCC3(CC3)c3cnc4[nH]cc(c4n3)C(=O)N[C@H](C3CC3)C(=O)N2C1
REMARK SMILES IDX 12 1 13 2 14 3 15 4 16 5 17 6 18 7 19 8 20 9 21 11 23 12
REMARK SMILES IDX 22 13 24 15 28 16 29 17 30 18 1 19 2 20 3 21 4 22 31 23 5 24
REMARK SMILES IDX 25 26 26 27 27 28 9 29 10 30 11 31 8 32 7 33 6 34
REMARK H PARENT 16 10 23 14
REMARK Flexibility Score:  122.900
ROOT
ATOM      1  C   UNL     1      30.610  20.446  -5.904  1.00  0.00     0.068 A
ATOM      2  C   UNL     1      29.789  21.560  -6.168  1.00  0.00     0.138 A
ATOM      3  N   UNL     1      28.476  21.539  -6.551  1.00  0.00    -0.235 NA
ATOM      4  C   UNL     1      28.051  20.270  -6.686  1.00  0.00     0.156 A
ATOM      5  N   UNL     1      26.819  19.861  -7.116  1.00  0.00    -0.344 N
ATOM      6  C   UNL     1      26.790  18.486  -7.190  1.00  0.00     0.100 A
ATOM      7  C   UNL     1      28.017  17.996  -6.765  1.00  0.00     0.085 A
ATOM      8  C   UNL     1      28.800  19.134  -6.432  1.00  0.00     0.120 A
ATOM      9  N   UNL     1      30.082  19.201  -5.989  1.00  0.00    -0.246 NA
ATOM     10  H   UNL     1      26.075  20.491  -7.376  1.00  0.00     0.168 HD
ENDROOT
BRANCH   7  11
ATOM     11  C   UNL     1      28.440  16.602  -6.736  1.00  0.00     0.255 C
ATOM     12  N   UNL     1      28.808  16.180  -5.489  1.00  0.00    -0.340 N
ATOM     13  O   UNL     1      28.495  15.904  -7.742  1.00  0.00    -0.269 OA
ATOM     14  H   UNL     1      28.718  16.847  -4.722  1.00  0.00     0.164 HD
BRANCH  12  15
ATOM     15  C   UNL     1      29.506  14.946  -5.191  1.00  0.00     0.175 C
BRANCH  15  16
ATOM     16  C   UNL     1      30.584  15.392  -4.168  1.00  0.00     0.245 C
ATOM     17  O   UNL     1      30.527  16.506  -3.637  1.00  0.00    -0.272 OA
BRANCH  16  18
ATOM     18  N   UNL     1      31.676  14.569  -3.976  1.00  0.00    -0.334 N
ATOM     19  N   UNL     1      32.415  10.015  -3.565  1.00  0.00    -0.198 NA
ATOM     20  C   UNL     1      32.652  11.146  -3.667  1.00  0.00     0.067 C
ATOM     21  C   UNL     1      32.951  12.574  -3.798  1.00  0.00     0.114 C
ATOM     22  C   UNL     1      32.894  13.309  -2.449  1.00  0.00     0.048 C
ATOM     23  C   UNL     1      31.909  13.301  -4.653  1.00  0.00     0.138 C
ATOM     24  C   UNL     1      32.589  14.755  -2.848  1.00  0.00     0.112 C
ATOM     25  G   UNL     1      33.896  15.507  -3.223  1.00  0.00     0.000 C
ENDBRANCH  16  18
ENDBRANCH  15  16
BRANCH  15  26
ATOM     26  C   UNL     1      28.550  13.950  -4.591  1.00  0.00     0.021 C
ATOM     27  C   UNL     1      27.312  13.517  -5.337  1.00  0.00     0.006 C
ATOM     28  C   UNL     1      28.450  12.553  -5.153  1.00  0.00     0.006 C
ENDBRANCH  15  26
ENDBRANCH  12  15
ENDBRANCH   7  11
BRANCH   1  29
ATOM     29  C   UNL     1      32.106  20.559  -5.530  1.00  0.00     0.038 C
ATOM     30  C   UNL     1      32.927  21.766  -5.962  1.00  0.00     0.017 C
ATOM     31  C   UNL     1      32.508  21.632  -4.527  1.00  0.00     0.017 C
BRANCH  29  32
ATOM     32  C   UNL     1      32.865  19.230  -5.458  1.00  0.00     0.173 C
BRANCH  32  33
ATOM     33  O   UNL     1      33.678  19.089  -6.621  1.00  0.00    -0.378 OA
BRANCH  33  34
ATOM     34  C   UNL     1      33.846  17.757  -7.095  1.00  0.00     0.185 C
ATOM     35  G   UNL     1      32.779  16.720  -6.647  1.00  0.00     0.000 C
ENDBRANCH  33  34
ENDBRANCH  32  33
ENDBRANCH  29  32
ENDBRANCH   1  29
TORSDOF 1
ENDMDL
MODEL 9
REMARK VINA RESULT:      -7.8      3.384      5.411
REMARK SMILES N#C[C@@H]1C[C@H]2COCC3(CC3)c3cnc4[nH]cc(c4n3)C(=O)N[C@H](C3CC3)C(=O)N2C1
REMARK SMILES IDX 12 1 13 2 14 3 15 4 16 5 17 6 18 7 19 8 20 9 21 11 23 12
REMARK SMILES IDX 22 13 24 15 28 16 29 17 30 18 1 19 2 20 3 21 4 22 31 23 5 24
REMARK SMILES IDX 25 26 26 27 27 28 9 29 10 30 11 31 8 32 7 33 6 34
REMARK H PARENT 16 10 23 14
REMARK Flexibility Score:  122.900
ROOT
ATOM      1  C   UNL     1      29.450   8.062  -5.823  1.00  0.00     0.068 A
ATOM      2  C   UNL     1      29.850   6.870  -5.188  1.00  0.00     0.138 A
ATOM      3  N   UNL     1      30.748   6.749  -4.163  1.00  0.00    -0.235 NA
ATOM      4  C   UNL     1      31.253   7.953  -3.842  1.00  0.00     0.156 A
ATOM      5  N   UNL     1      32.221   8.212  -2.912  1.00  0.00    -0.344 N
ATOM      6  C   UNL     1      32.523   9.556  -2.923  1.00  0.00     0.100 A
ATOM      7  C   UNL     1      31.706  10.183  -3.855  1.00  0.00     0.085 A
ATOM      8  C   UNL     1      30.896   9.160  -4.417  1.00  0.00     0.120 A
ATOM      9  N   UNL     1      29.950   9.244  -5.387  1.00  0.00    -0.246 NA
ATOM     10  H   UNL     1      32.664   7.504  -2.347  1.00  0.00     0.168 HD
ENDROOT
BRANCH   7  11
ATOM     11  C   UNL     1      31.729  11.591  -4.231  1.00  0.00     0.255 C
ATOM     12  N   UNL     1      30.539  12.223  -4.007  1.00  0.00    -0.340 N
ATOM     13  O   UNL     1      32.709  12.127  -4.735  1.00  0.00    -0.269 OA
ATOM     14  H   UNL     1      29.790  11.678  -3.579  1.00  0.00     0.164 HD
BRANCH  12  15
ATOM     15  C   UNL     1      30.175  13.534  -4.508  1.00  0.00     0.175 C
BRANCH  15  16
ATOM     16  C   UNL     1      28.795  13.284  -5.170  1.00  0.00     0.245 C
ATOM     17  O   UNL     1      28.408  12.135  -5.410  1.00  0.00    -0.272 OA
BRANCH  16  18
ATOM     18  N   UNL     1      28.077  14.380  -5.607  1.00  0.00    -0.334 N
ATOM     19  N   UNL     1      28.581  18.983  -5.497  1.00  0.00    -0.198 NA
ATOM     20  C   UNL     1      28.131  17.948  -5.766  1.00  0.00     0.067 C
ATOM     21  C   UNL     1      27.563  16.643  -6.109  1.00  0.00     0.114 C
ATOM     22  C   UNL     1      26.635  16.102  -5.009  1.00  0.00     0.048 C
ATOM     23  C   UNL     1      28.643  15.564  -6.238  1.00  0.00     0.138 C
ATOM     24  C   UNL     1      26.681  14.587  -5.223  1.00  0.00     0.112 C
ATOM     25  G   UNL     1      25.663  14.158  -6.316  1.00  0.00     0.000 C
ENDBRANCH  16  18
ENDBRANCH  15  16
BRANCH  15  26
ATOM     26  C   UNL     1      30.075  14.508  -3.366  1.00  0.00     0.021 C
ATOM     27  C   UNL     1      31.250  14.757  -2.453  1.00  0.00     0.006 C
ATOM     28  C   UNL     1      30.812  15.824  -3.417  1.00  0.00     0.006 C
ENDBRANCH  15  26
ENDBRANCH  12  15
ENDBRANCH   7  11
BRANCH   1  29
ATOM     29  C   UNL     1      28.468   8.104  -7.017  1.00  0.00     0.038 C
ATOM     30  C   UNL     1      28.982   8.240  -8.443  1.00  0.00     0.017 C
ATOM     31  C   UNL     1      28.458   6.916  -7.970  1.00  0.00     0.017 C
BRANCH  29  32
ATOM     32  C   UNL     1      27.118   8.768  -6.731  1.00  0.00     0.173 C
BRANCH  32  33
ATOM     33  O   UNL     1      26.696   8.431  -5.411  1.00  0.00    -0.378 OA
BRANCH  33  34
ATOM     34  C   UNL     1      25.854   7.288  -5.309  1.00  0.00     0.185 C
ATOM     35  G   UNL     1      24.597   7.267  -6.222  1.00  0.00     0.000 C
ENDBRANCH  33  34
ENDBRANCH  32  33
ENDBRANCH  29  32
ENDBRANCH   1  29
TORSDOF 1
ENDMDL
