MODEL 1
REMARK VINA RESULT:      -8.5      0.000      0.000
REMARK SMILES CC(C)(C)[C@H]1NC(=O)c2c[nH]c3ncc(nc23)[C@]2(CC2)COC[C@@]2(C#N)CN(C2)C1=O
REMARK SMILES IDX 9 1 10 2 11 3 12 4 13 5 14 6 15 7 16 8 17 9 7 11 6 12 8 13
REMARK SMILES IDX 5 15 2 16 1 17 3 18 4 19 30 20 31 21 28 22 29 23 27 24 24 25
REMARK SMILES IDX 25 26 26 27 18 29 19 30 20 31 21 32 22 33 23 34
REMARK H PARENT 11 10 6 14
REMARK Flexibility Score:  106.900
ROOT
ATOM      1  C   UNL     1      34.557  12.316  -2.396  1.00  0.00     0.085 A
ATOM      2  C   UNL     1      35.700  11.912  -1.719  1.00  0.00     0.100 A
ATOM      3  N   UNL     1      35.553  10.580  -1.389  1.00  0.00    -0.344 N
ATOM      4  C   UNL     1      34.378  10.105  -1.905  1.00  0.00     0.156 A
ATOM      5  N   UNL     1      33.950   8.826  -1.905  1.00  0.00    -0.235 NA
ATOM      6  C   UNL     1      32.788   8.710  -2.617  1.00  0.00     0.138 A
ATOM      7  C   UNL     1      32.085   9.761  -3.224  1.00  0.00     0.068 A
ATOM      8  N   UNL     1      32.530  11.028  -3.104  1.00  0.00    -0.246 NA
ATOM      9  C   UNL     1      33.718  11.178  -2.479  1.00  0.00     0.120 A
ATOM     10  H   UNL     1      36.227  10.002  -0.907  1.00  0.00     0.168 HD
ENDROOT
BRANCH   1  11
ATOM     11  C   UNL     1      34.256  13.594  -3.014  1.00  0.00     0.255 C
ATOM     12  N   UNL     1      33.040  13.628  -3.652  1.00  0.00    -0.340 N
ATOM     13  O   UNL     1      34.973  14.569  -2.857  1.00  0.00    -0.269 OA
ATOM     14  H   UNL     1      32.514  12.763  -3.667  1.00  0.00     0.164 HD
BRANCH  12  15
ATOM     15  C   UNL     1      32.264  14.846  -3.911  1.00  0.00     0.177 C
BRANCH  15  16
ATOM     16  C   UNL     1      30.936  15.099  -3.120  1.00  0.00    -0.009 C
ATOM     17  C   UNL     1      30.028  13.850  -3.288  1.00  0.00     0.013 C
ATOM     18  C   UNL     1      30.087  16.300  -3.553  1.00  0.00     0.013 C
ATOM     19  C   UNL     1      31.245  15.240  -1.614  1.00  0.00     0.013 C
ENDBRANCH  15  16
BRANCH  15  20
ATOM     20  C   UNL     1      32.468  15.307  -5.388  1.00  0.00     0.245 C
ATOM     21  O   UNL     1      32.027  14.577  -6.290  1.00  0.00    -0.272 OA
BRANCH  20  22
ATOM     22  N   UNL     1      32.990  16.514  -5.727  1.00  0.00    -0.337 N
ATOM     23  C   UNL     1      33.939  17.469  -5.205  1.00  0.00     0.146 C
ATOM     24  C   UNL     1      32.502  17.446  -6.751  1.00  0.00     0.146 C
ATOM     25  C   UNL     1      33.033  18.568  -5.832  1.00  0.00     0.116 C
ATOM     26  C   UNL     1      33.777  19.617  -6.492  1.00  0.00     0.075 C
ATOM     27  N   UNL     1      34.412  20.427  -7.030  1.00  0.00    -0.197 NA
ATOM     28  G   UNL     1      31.989  19.094  -4.841  1.00  0.00     0.000 C
ENDBRANCH  20  22
ENDBRANCH  15  20
ENDBRANCH  12  15
ENDBRANCH   1  11
BRANCH   7  29
ATOM     29  C   UNL     1      30.881   9.559  -4.143  1.00  0.00     0.038 C
ATOM     30  C   UNL     1      30.512  10.691  -5.095  1.00  0.00     0.017 C
ATOM     31  C   UNL     1      29.622  10.394  -3.933  1.00  0.00     0.017 C
BRANCH  29  32
ATOM     32  C   UNL     1      30.723   8.121  -4.643  1.00  0.00     0.173 C
BRANCH  32  33
ATOM     33  O   UNL     1      29.844   7.982  -5.777  1.00  0.00    -0.379 OA
BRANCH  33  34
ATOM     34  C   UNL     1      28.901   6.908  -5.645  1.00  0.00     0.186 C
ATOM     35  G   UNL     1      27.997   6.792  -6.878  1.00  0.00     0.000 C
ENDBRANCH  33  34
ENDBRANCH  32  33
ENDBRANCH  29  32
ENDBRANCH   7  29
TORSDOF 1
ENDMDL
MODEL 2
REMARK VINA RESULT:      -8.4      2.095      3.487
REMARK SMILES CC(C)(C)[C@H]1NC(=O)c2c[nH]c3ncc(nc23)[C@]2(CC2)COC[C@@]2(C#N)CN(C2)C1=O
REMARK SMILES IDX 9 1 10 2 11 3 12 4 13 5 14 6 15 7 16 8 17 9 7 11 6 12 8 13
REMARK SMILES IDX 5 15 2 16 1 17 3 18 4 19 30 20 31 21 28 22 29 23 27 24 24 25
REMARK SMILES IDX 25 26 26 27 18 29 19 30 20 31 21 32 22 33 23 34
REMARK H PARENT 11 10 6 14
REMARK Flexibility Score:  106.900
ROOT
ATOM      1  C   UNL     1      32.655  14.805  -3.847  1.00  0.00     0.085 A
ATOM      2  C   UNL     1      33.575  15.830  -3.672  1.00  0.00     0.100 A
ATOM      3  N   UNL     1      34.629  15.336  -2.931  1.00  0.00    -0.344 N
ATOM      4  C   UNL     1      34.439  14.002  -2.692  1.00  0.00     0.156 A
ATOM      5  N   UNL     1      35.309  13.149  -2.117  1.00  0.00    -0.235 NA
ATOM      6  C   UNL     1      34.824  11.870  -2.156  1.00  0.00     0.138 A
ATOM      7  C   UNL     1      33.577  11.478  -2.664  1.00  0.00     0.068 A
ATOM      8  N   UNL     1      32.722  12.404  -3.142  1.00  0.00    -0.246 NA
ATOM      9  C   UNL     1      33.194  13.668  -3.198  1.00  0.00     0.120 A
ATOM     10  H   UNL     1      35.461  15.841  -2.657  1.00  0.00     0.168 HD
ENDROOT
BRANCH   1  11
ATOM     11  C   UNL     1      31.422  14.795  -4.613  1.00  0.00     0.255 C
ATOM     12  N   UNL     1      30.311  15.131  -3.879  1.00  0.00    -0.340 N
ATOM     13  O   UNL     1      31.418  14.626  -5.822  1.00  0.00    -0.269 OA
ATOM     14  H   UNL     1      30.456  15.299  -2.892  1.00  0.00     0.164 HD
BRANCH  12  15
ATOM     15  C   UNL     1      29.072  15.682  -4.440  1.00  0.00     0.177 C
BRANCH  15  16
ATOM     16  C   UNL     1      28.145  14.769  -5.311  1.00  0.00    -0.009 C
ATOM     17  C   UNL     1      28.451  13.289  -4.955  1.00  0.00     0.013 C
ATOM     18  C   UNL     1      28.295  14.877  -6.833  1.00  0.00     0.013 C
ATOM     19  C   UNL     1      26.667  15.030  -4.949  1.00  0.00     0.013 C
ENDBRANCH  15  16
BRANCH  15  20
ATOM     20  C   UNL     1      29.236  17.212  -4.700  1.00  0.00     0.245 C
ATOM     21  O   UNL     1      28.254  17.943  -4.501  1.00  0.00    -0.272 OA
BRANCH  20  22
ATOM     22  N   UNL     1      30.424  17.792  -5.012  1.00  0.00    -0.337 N
ATOM     23  C   UNL     1      31.448  18.580  -4.366  1.00  0.00     0.146 C
ATOM     24  C   UNL     1      30.989  18.018  -6.348  1.00  0.00     0.146 C
ATOM     25  C   UNL     1      31.644  19.279  -5.742  1.00  0.00     0.116 C
ATOM     26  C   UNL     1      33.032  19.490  -6.086  1.00  0.00     0.075 C
ATOM     27  N   UNL     1      34.159  19.619  -6.333  1.00  0.00    -0.197 NA
ATOM     28  G   UNL     1      30.785  20.541  -5.879  1.00  0.00     0.000 C
ENDBRANCH  20  22
ENDBRANCH  15  20
ENDBRANCH  12  15
ENDBRANCH   1  11
BRANCH   7  29
ATOM     29  C   UNL     1      33.148  10.021  -2.833  1.00  0.00     0.038 C
ATOM     30  C   UNL     1      33.083   9.146  -1.587  1.00  0.00     0.017 C
ATOM     31  C   UNL     1      34.158   8.903  -2.596  1.00  0.00     0.017 C
BRANCH  29  32
ATOM     32  C   UNL     1      32.079   9.816  -3.910  1.00  0.00     0.173 C
BRANCH  32  33
ATOM     33  O   UNL     1      31.023   8.910  -3.530  1.00  0.00    -0.379 OA
BRANCH  33  34
ATOM     34  C   UNL     1      30.375   8.283  -4.647  1.00  0.00     0.186 C
ATOM     35  G   UNL     1      30.464   6.755  -4.570  1.00  0.00     0.000 C
ENDBRANCH  33  34
ENDBRANCH  32  33
ENDBRANCH  29  32
ENDBRANCH   7  29
TORSDOF 1
ENDMDL
MODEL 3
REMARK VINA RESULT:      -8.2      2.464      4.812
REMARK SMILES CC(C)(C)[C@H]1NC(=O)c2c[nH]c3ncc(nc23)[C@]2(CC2)COC[C@@]2(C#N)CN(C2)C1=O
REMARK SMILES IDX 9 1 10 2 11 3 12 4 13 5 14 6 15 7 16 8 17 9 7 11 6 12 8 13
REMARK SMILES IDX 5 15 2 16 1 17 3 18 4 19 30 20 31 21 28 22 29 23 27 24 24 25
REMARK SMILES IDX 25 26 26 27 18 29 19 30 20 31 21 32 22 33 23 34
REMARK H PARENT 11 10 6 14
REMARK Flexibility Score:  106.900
ROOT
ATOM      1  C   UNL     1      29.416  12.259  -4.676  1.00  0.00     0.085 A
ATOM      2  C   UNL     1      28.234  11.757  -5.202  1.00  0.00     0.100 A
ATOM      3  N   UNL     1      28.369  10.389  -5.327  1.00  0.00    -0.344 N
ATOM      4  C   UNL     1      29.581   9.998  -4.825  1.00  0.00     0.156 A
ATOM      5  N   UNL     1      30.018   8.735  -4.653  1.00  0.00    -0.235 NA
ATOM      6  C   UNL     1      31.227   8.729  -4.013  1.00  0.00     0.138 A
ATOM      7  C   UNL     1      31.960   9.861  -3.628  1.00  0.00     0.068 A
ATOM      8  N   UNL     1      31.497  11.094  -3.915  1.00  0.00    -0.246 NA
ATOM      9  C   UNL     1      30.268  11.146  -4.473  1.00  0.00     0.120 A
ATOM     10  H   UNL     1      27.669   9.743  -5.665  1.00  0.00     0.168 HD
ENDROOT
BRANCH   1  11
ATOM     11  C   UNL     1      29.748  13.618  -4.288  1.00  0.00     0.255 C
ATOM     12  N   UNL     1      30.045  14.440  -5.348  1.00  0.00    -0.340 N
ATOM     13  O   UNL     1      29.641  14.002  -3.134  1.00  0.00    -0.269 OA
ATOM     14  H   UNL     1      30.050  14.011  -6.265  1.00  0.00     0.164 HD
BRANCH  12  15
ATOM     15  C   UNL     1      29.921  15.902  -5.334  1.00  0.00     0.177 C
BRANCH  15  16
ATOM     16  C   UNL     1      28.540  16.564  -5.656  1.00  0.00    -0.009 C
ATOM     17  C   UNL     1      27.475  15.438  -5.753  1.00  0.00     0.013 C
ATOM     18  C   UNL     1      28.436  17.357  -6.964  1.00  0.00     0.013 C
ATOM     19  C   UNL     1      28.121  17.489  -4.493  1.00  0.00     0.013 C
ENDBRANCH  15  16
BRANCH  15  20
ATOM     20  C   UNL     1      31.283  16.557  -5.724  1.00  0.00     0.245 C
ATOM     21  O   UNL     1      32.048  15.913  -6.459  1.00  0.00    -0.272 OA
BRANCH  20  22
ATOM     22  N   UNL     1      31.615  17.835  -5.404  1.00  0.00    -0.337 N
ATOM     23  C   UNL     1      31.347  18.794  -4.358  1.00  0.00     0.146 C
ATOM     24  C   UNL     1      32.246  18.841  -6.266  1.00  0.00     0.146 C
ATOM     25  C   UNL     1      31.436  19.883  -5.464  1.00  0.00     0.116 C
ATOM     26  C   UNL     1      32.166  21.061  -5.053  1.00  0.00     0.075 C
ATOM     27  N   UNL     1      32.778  21.979  -4.690  1.00  0.00    -0.197 NA
ATOM     28  G   UNL     1      30.068  20.200  -6.079  1.00  0.00     0.000 C
ENDBRANCH  20  22
ENDBRANCH  15  20
ENDBRANCH  12  15
ENDBRANCH   1  11
BRANCH   7  29
ATOM     29  C   UNL     1      33.226   9.804  -2.773  1.00  0.00     0.038 C
ATOM     30  C   UNL     1      33.755   8.432  -2.370  1.00  0.00     0.017 C
ATOM     31  C   UNL     1      33.143   9.314  -1.331  1.00  0.00     0.017 C
BRANCH  29  32
ATOM     32  C   UNL     1      34.245  10.895  -3.111  1.00  0.00     0.173 C
BRANCH  32  33
ATOM     33  O   UNL     1      34.104  12.099  -2.331  1.00  0.00    -0.379 OA
BRANCH  33  34
ATOM     34  C   UNL     1      35.350  12.618  -1.844  1.00  0.00     0.186 C
ATOM     35  G   UNL     1      36.085  11.600  -0.964  1.00  0.00     0.000 C
ENDBRANCH  33  34
ENDBRANCH  32  33
ENDBRANCH  29  32
ENDBRANCH   7  29
TORSDOF 1
ENDMDL
MODEL 4
REMARK VINA RESULT:      -8.2      1.001      1.284
REMARK SMILES CC(C)(C)[C@H]1NC(=O)c2c[nH]c3ncc(nc23)[C@]2(CC2)COC[C@@]2(C#N)CN(C2)C1=O
REMARK SMILES IDX 9 1 10 2 11 3 12 4 13 5 14 6 15 7 16 8 17 9 7 11 6 12 8 13
REMARK SMILES IDX 5 15 2 16 1 17 3 18 4 19 30 20 31 21 28 22 29 23 27 24 24 25
REMARK SMILES IDX 25 26 26 27 18 29 19 30 20 31 21 32 22 33 23 34
REMARK H PARENT 11 10 6 14
REMARK Flexibility Score:  106.900
ROOT
ATOM      1  C   UNL     1      34.019  11.854  -2.681  1.00  0.00     0.085 A
ATOM      2  C   UNL     1      35.080  11.212  -2.058  1.00  0.00     0.100 A
ATOM      3  N   UNL     1      34.743   9.883  -1.900  1.00  0.00    -0.344 N
ATOM      4  C   UNL     1      33.524   9.646  -2.475  1.00  0.00     0.156 A
ATOM      5  N   UNL     1      32.924   8.450  -2.638  1.00  0.00    -0.235 NA
ATOM      6  C   UNL     1      31.772   8.587  -3.362  1.00  0.00     0.138 A
ATOM      7  C   UNL     1      31.234   9.794  -3.833  1.00  0.00     0.068 A
ATOM      8  N   UNL     1      31.847  10.961  -3.552  1.00  0.00    -0.246 NA
ATOM      9  C   UNL     1      33.032  10.864  -2.910  1.00  0.00     0.120 A
ATOM     10  H   UNL     1      35.321   9.160  -1.494  1.00  0.00     0.168 HD
ENDROOT
BRANCH   1  11
ATOM     11  C   UNL     1      33.909  13.229  -3.133  1.00  0.00     0.255 C
ATOM     12  N   UNL     1      32.773  13.485  -3.860  1.00  0.00    -0.340 N
ATOM     13  O   UNL     1      34.702  14.087  -2.777  1.00  0.00    -0.269 OA
ATOM     14  H   UNL     1      32.167  12.695  -4.044  1.00  0.00     0.164 HD
BRANCH  12  15
ATOM     15  C   UNL     1      32.152  14.806  -4.007  1.00  0.00     0.177 C
BRANCH  15  16
ATOM     16  C   UNL     1      30.885  15.163  -3.160  1.00  0.00    -0.009 C
ATOM     17  C   UNL     1      30.211  16.408  -3.797  1.00  0.00     0.013 C
ATOM     18  C   UNL     1      31.111  15.514  -1.685  1.00  0.00     0.013 C
ATOM     19  C   UNL     1      29.867  14.005  -3.232  1.00  0.00     0.013 C
ENDBRANCH  15  16
BRANCH  15  20
ATOM     20  C   UNL     1      32.382  15.348  -5.453  1.00  0.00     0.245 C
ATOM     21  O   UNL     1      31.948  14.674  -6.400  1.00  0.00    -0.272 OA
BRANCH  20  22
ATOM     22  N   UNL     1      32.917  16.568  -5.716  1.00  0.00    -0.337 N
ATOM     23  C   UNL     1      33.260  17.777  -5.004  1.00  0.00     0.146 C
ATOM     24  C   UNL     1      33.121  17.194  -7.028  1.00  0.00     0.146 C
ATOM     25  C   UNL     1      32.879  18.538  -6.306  1.00  0.00     0.116 C
ATOM     26  C   UNL     1      33.799  19.602  -6.640  1.00  0.00     0.075 C
ATOM     27  N   UNL     1      34.574  20.432  -6.882  1.00  0.00    -0.197 NA
ATOM     28  G   UNL     1      31.411  18.980  -6.311  1.00  0.00     0.000 C
ENDBRANCH  20  22
ENDBRANCH  15  20
ENDBRANCH  12  15
ENDBRANCH   1  11
BRANCH   7  29
ATOM     29  C   UNL     1      30.032   9.880  -4.774  1.00  0.00     0.038 C
ATOM     30  C   UNL     1      29.677  11.243  -5.357  1.00  0.00     0.017 C
ATOM     31  C   UNL     1      28.779  10.630  -4.332  1.00  0.00     0.017 C
BRANCH  29  32
ATOM     32  C   UNL     1      29.864   8.650  -5.670  1.00  0.00     0.173 C
BRANCH  32  33
ATOM     33  O   UNL     1      29.000   8.860  -6.806  1.00  0.00    -0.379 OA
BRANCH  33  34
ATOM     34  C   UNL     1      29.128   7.852  -7.819  1.00  0.00     0.186 C
ATOM     35  G   UNL     1      28.598   8.337  -9.173  1.00  0.00     0.000 C
ENDBRANCH  33  34
ENDBRANCH  32  33
ENDBRANCH  29  32
ENDBRANCH   7  29
TORSDOF 1
ENDMDL
MODEL 5
REMARK VINA RESULT:      -8.2      2.421      4.782
REMARK SMILES CC(C)(C)[C@H]1NC(=O)c2c[nH]c3ncc(nc23)[C@]2(CC2)COC[C@@]2(C#N)CN(C2)C1=O
REMARK SMILES IDX 9 1 10 2 11 3 12 4 13 5 14 6 15 7 16 8 17 9 7 11 6 12 8 13
REMARK SMILES IDX 5 15 2 16 1 17 3 18 4 19 30 20 31 21 28 22 29 23 27 24 24 25
REMARK SMILES IDX 25 26 26 27 18 29 19 30 20 31 21 32 22 33 23 34
REMARK H PARENT 11 10 6 14
REMARK Flexibility Score:  106.900
ROOT
ATOM      1  C   UNL     1      29.453  12.308  -4.705  1.00  0.00     0.085 A
ATOM      2  C   UNL     1      28.285  11.785  -5.241  1.00  0.00     0.100 A
ATOM      3  N   UNL     1      28.443  10.419  -5.361  1.00  0.00    -0.344 N
ATOM      4  C   UNL     1      29.656  10.050  -4.846  1.00  0.00     0.156 A
ATOM      5  N   UNL     1      30.112   8.794  -4.666  1.00  0.00    -0.235 NA
ATOM      6  C   UNL     1      31.314   8.810  -4.014  1.00  0.00     0.138 A
ATOM      7  C   UNL     1      32.026   9.954  -3.625  1.00  0.00     0.068 A
ATOM      8  N   UNL     1      31.545  11.179  -3.920  1.00  0.00    -0.246 NA
ATOM      9  C   UNL     1      30.321  11.210  -4.490  1.00  0.00     0.120 A
ATOM     10  H   UNL     1      27.757   9.762  -5.704  1.00  0.00     0.168 HD
ENDROOT
BRANCH   1  11
ATOM     11  C   UNL     1      29.759  13.674  -4.318  1.00  0.00     0.255 C
ATOM     12  N   UNL     1      30.018  14.506  -5.379  1.00  0.00    -0.340 N
ATOM     13  O   UNL     1      29.662  14.050  -3.161  1.00  0.00    -0.269 OA
ATOM     14  H   UNL     1      30.018  14.080  -6.297  1.00  0.00     0.164 HD
BRANCH  12  15
ATOM     15  C   UNL     1      29.860  15.964  -5.358  1.00  0.00     0.177 C
BRANCH  15  16
ATOM     16  C   UNL     1      28.443  16.591  -5.579  1.00  0.00    -0.009 C
ATOM     17  C   UNL     1      28.184  17.615  -4.441  1.00  0.00     0.013 C
ATOM     18  C   UNL     1      27.248  15.631  -5.563  1.00  0.00     0.013 C
ATOM     19  C   UNL     1      28.420  17.373  -6.910  1.00  0.00     0.013 C
ENDBRANCH  15  16
BRANCH  15  20
ATOM     20  C   UNL     1      31.174  16.652  -5.846  1.00  0.00     0.245 C
ATOM     21  O   UNL     1      31.852  16.064  -6.703  1.00  0.00    -0.272 OA
BRANCH  20  22
ATOM     22  N   UNL     1      31.542  17.905  -5.474  1.00  0.00    -0.337 N
ATOM     23  C   UNL     1      31.293  18.833  -4.396  1.00  0.00     0.146 C
ATOM     24  C   UNL     1      32.214  18.922  -6.292  1.00  0.00     0.146 C
ATOM     25  C   UNL     1      31.429  19.959  -5.460  1.00  0.00     0.116 C
ATOM     26  C   UNL     1      32.191  21.097  -4.997  1.00  0.00     0.075 C
ATOM     27  N   UNL     1      32.828  21.980  -4.593  1.00  0.00    -0.197 NA
ATOM     28  G   UNL     1      30.078  20.343  -6.075  1.00  0.00     0.000 C
ENDBRANCH  20  22
ENDBRANCH  15  20
ENDBRANCH  12  15
ENDBRANCH   1  11
BRANCH   7  29
ATOM     29  C   UNL     1      33.283   9.920  -2.757  1.00  0.00     0.038 C
ATOM     30  C   UNL     1      33.859   8.558  -2.388  1.00  0.00     0.017 C
ATOM     31  C   UNL     1      33.203   9.386  -1.331  1.00  0.00     0.017 C
BRANCH  29  32
ATOM     32  C   UNL     1      34.264  11.058  -3.053  1.00  0.00     0.173 C
BRANCH  32  33
ATOM     33  O   UNL     1      34.159  12.178  -2.150  1.00  0.00    -0.379 OA
BRANCH  33  34
ATOM     34  C   UNL     1      34.422  13.444  -2.773  1.00  0.00     0.186 C
ATOM     35  G   UNL     1      33.146  14.282  -2.917  1.00  0.00     0.000 C
ENDBRANCH  33  34
ENDBRANCH  32  33
ENDBRANCH  29  32
ENDBRANCH   7  29
TORSDOF 1
ENDMDL
MODEL 6
REMARK VINA RESULT:      -8.2      2.085      3.496
REMARK SMILES CC(C)(C)[C@H]1NC(=O)c2c[nH]c3ncc(nc23)[C@]2(CC2)COC[C@@]2(C#N)CN(C2)C1=O
REMARK SMILES IDX 9 1 10 2 11 3 12 4 13 5 14 6 15 7 16 8 17 9 7 11 6 12 8 13
REMARK SMILES IDX 5 15 2 16 1 17 3 18 4 19 30 20 31 21 28 22 29 23 27 24 24 25
REMARK SMILES IDX 25 26 26 27 18 29 19 30 20 31 21 32 22 33 23 34
REMARK H PARENT 11 10 6 14
REMARK Flexibility Score:  106.900
ROOT
ATOM      1  C   UNL     1      32.897  14.694  -3.809  1.00  0.00     0.085 A
ATOM      2  C   UNL     1      33.826  15.701  -3.587  1.00  0.00     0.100 A
ATOM      3  N   UNL     1      34.825  15.191  -2.782  1.00  0.00    -0.344 N
ATOM      4  C   UNL     1      34.594  13.863  -2.547  1.00  0.00     0.156 A
ATOM      5  N   UNL     1      35.412  12.997  -1.917  1.00  0.00    -0.235 NA
ATOM      6  C   UNL     1      34.904  11.728  -1.977  1.00  0.00     0.138 A
ATOM      7  C   UNL     1      33.681  11.357  -2.554  1.00  0.00     0.068 A
ATOM      8  N   UNL     1      32.874  12.296  -3.087  1.00  0.00    -0.246 NA
ATOM      9  C   UNL     1      33.375  13.550  -3.123  1.00  0.00     0.120 A
ATOM     10  H   UNL     1      35.650  15.681  -2.463  1.00  0.00     0.168 HD
ENDROOT
BRANCH   1  11
ATOM     11  C   UNL     1      31.711  14.702  -4.645  1.00  0.00     0.255 C
ATOM     12  N   UNL     1      30.686  15.467  -4.146  1.00  0.00    -0.340 N
ATOM     13  O   UNL     1      31.697  14.176  -5.746  1.00  0.00    -0.269 OA
ATOM     14  H   UNL     1      30.842  15.896  -3.242  1.00  0.00     0.164 HD
BRANCH  12  15
ATOM     15  C   UNL     1      29.614  16.062  -4.952  1.00  0.00     0.177 C
BRANCH  15  16
ATOM     16  C   UNL     1      28.326  15.228  -5.261  1.00  0.00    -0.009 C
ATOM     17  C   UNL     1      28.405  14.744  -6.735  1.00  0.00     0.013 C
ATOM     18  C   UNL     1      26.981  15.949  -5.125  1.00  0.00     0.013 C
ATOM     19  C   UNL     1      28.294  13.968  -4.369  1.00  0.00     0.013 C
ENDBRANCH  15  16
BRANCH  15  20
ATOM     20  C   UNL     1      30.211  17.097  -5.956  1.00  0.00     0.245 C
ATOM     21  O   UNL     1      30.235  16.792  -7.159  1.00  0.00    -0.272 OA
BRANCH  20  22
ATOM     22  N   UNL     1      30.589  18.351  -5.598  1.00  0.00    -0.337 N
ATOM     23  C   UNL     1      30.516  19.696  -6.120  1.00  0.00     0.146 C
ATOM     24  C   UNL     1      31.521  18.737  -4.531  1.00  0.00     0.146 C
ATOM     25  C   UNL     1      31.890  19.936  -5.433  1.00  0.00     0.116 C
ATOM     26  C   UNL     1      31.983  21.215  -4.765  1.00  0.00     0.075 C
ATOM     27  N   UNL     1      32.007  22.242  -4.224  1.00  0.00    -0.197 NA
ATOM     28  G   UNL     1      33.067  19.655  -6.374  1.00  0.00     0.000 C
ENDBRANCH  20  22
ENDBRANCH  15  20
ENDBRANCH  12  15
ENDBRANCH   1  11
BRANCH   7  29
ATOM     29  C   UNL     1      33.233   9.908  -2.739  1.00  0.00     0.038 C
ATOM     30  C   UNL     1      33.146   9.023  -1.501  1.00  0.00     0.017 C
ATOM     31  C   UNL     1      34.225   8.774  -2.503  1.00  0.00     0.017 C
BRANCH  29  32
ATOM     32  C   UNL     1      32.169   9.727  -3.825  1.00  0.00     0.173 C
BRANCH  32  33
ATOM     33  O   UNL     1      30.824   9.597  -3.320  1.00  0.00    -0.379 OA
BRANCH  33  34
ATOM     34  C   UNL     1      29.834  10.211  -4.158  1.00  0.00     0.186 C
ATOM     35  G   UNL     1      29.603   9.410  -5.445  1.00  0.00     0.000 C
ENDBRANCH  33  34
ENDBRANCH  32  33
ENDBRANCH  29  32
ENDBRANCH   7  29
TORSDOF 1
ENDMDL
MODEL 7
REMARK VINA RESULT:      -8.1      2.763      5.150
REMARK SMILES CC(C)(C)[C@H]1NC(=O)c2c[nH]c3ncc(nc23)[C@]2(CC2)COC[C@@]2(C#N)CN(C2)C1=O
REMARK SMILES IDX 9 1 10 2 11 3 12 4 13 5 14 6 15 7 16 8 17 9 7 11 6 12 8 13
REMARK SMILES IDX 5 15 2 16 1 17 3 18 4 19 30 20 31 21 28 22 29 23 27 24 24 25
REMARK SMILES IDX 25 26 26 27 18 29 19 30 20 31 21 32 22 33 23 34
REMARK H PARENT 11 10 6 14
REMARK Flexibility Score:  106.900
ROOT
ATOM      1  C   UNL     1      29.145  11.611  -5.177  1.00  0.00     0.085 A
ATOM      2  C   UNL     1      28.111  10.844  -5.695  1.00  0.00     0.100 A
ATOM      3  N   UNL     1      28.476   9.516  -5.601  1.00  0.00    -0.344 N
ATOM      4  C   UNL     1      29.685   9.414  -4.969  1.00  0.00     0.156 A
ATOM      5  N   UNL     1      30.304   8.282  -4.578  1.00  0.00    -0.235 NA
ATOM      6  C   UNL     1      31.435   8.575  -3.869  1.00  0.00     0.138 A
ATOM      7  C   UNL     1      31.940   9.859  -3.615  1.00  0.00     0.068 A
ATOM      8  N   UNL     1      31.311  10.941  -4.116  1.00  0.00    -0.246 NA
ATOM      9  C   UNL     1      30.144  10.702  -4.752  1.00  0.00     0.120 A
ATOM     10  H   UNL     1      27.921   8.718  -5.881  1.00  0.00     0.168 HD
ENDROOT
BRANCH   1  11
ATOM     11  C   UNL     1      29.217  13.048  -4.981  1.00  0.00     0.255 C
ATOM     12  N   UNL     1      28.891  13.777  -6.098  1.00  0.00    -0.340 N
ATOM     13  O   UNL     1      29.425  13.536  -3.882  1.00  0.00    -0.269 OA
ATOM     14  H   UNL     1      28.687  13.250  -6.938  1.00  0.00     0.164 HD
BRANCH  12  15
ATOM     15  C   UNL     1      28.396  15.158  -6.082  1.00  0.00     0.177 C
BRANCH  15  16
ATOM     16  C   UNL     1      26.887  15.434  -5.768  1.00  0.00    -0.009 C
ATOM     17  C   UNL     1      26.694  16.969  -5.628  1.00  0.00     0.013 C
ATOM     18  C   UNL     1      26.319  14.818  -4.484  1.00  0.00     0.013 C
ATOM     19  C   UNL     1      26.014  14.971  -6.955  1.00  0.00     0.013 C
ENDBRANCH  15  16
BRANCH  15  20
ATOM     20  C   UNL     1      29.228  16.037  -7.067  1.00  0.00     0.245 C
ATOM     21  O   UNL     1      28.810  16.160  -8.229  1.00  0.00    -0.272 OA
BRANCH  20  22
ATOM     22  N   UNL     1      30.309  16.765  -6.685  1.00  0.00    -0.337 N
ATOM     23  C   UNL     1      31.709  16.558  -6.398  1.00  0.00     0.146 C
ATOM     24  C   UNL     1      30.325  18.132  -6.149  1.00  0.00     0.146 C
ATOM     25  C   UNL     1      31.560  17.686  -5.337  1.00  0.00     0.116 C
ATOM     26  C   UNL     1      32.669  18.613  -5.325  1.00  0.00     0.075 C
ATOM     27  N   UNL     1      33.569  19.346  -5.364  1.00  0.00    -0.197 NA
ATOM     28  G   UNL     1      31.214  17.135  -3.949  1.00  0.00     0.000 C
ENDBRANCH  20  22
ENDBRANCH  15  20
ENDBRANCH  12  15
ENDBRANCH   1  11
BRANCH   7  29
ATOM     29  C   UNL     1      33.117  10.142  -2.682  1.00  0.00     0.038 C
ATOM     30  C   UNL     1      34.279   9.155  -2.679  1.00  0.00     0.017 C
ATOM     31  C   UNL     1      33.375   9.224  -1.491  1.00  0.00     0.017 C
BRANCH  29  32
ATOM     32  C   UNL     1      33.440  11.631  -2.534  1.00  0.00     0.173 C
BRANCH  32  33
ATOM     33  O   UNL     1      34.850  11.934  -2.540  1.00  0.00    -0.379 OA
BRANCH  33  34
ATOM     34  C   UNL     1      35.135  13.339  -2.596  1.00  0.00     0.186 C
ATOM     35  G   UNL     1      33.885  14.159  -2.937  1.00  0.00     0.000 C
ENDBRANCH  33  34
ENDBRANCH  32  33
ENDBRANCH  29  32
ENDBRANCH   7  29
TORSDOF 1
ENDMDL
MODEL 8
REMARK VINA RESULT:      -8.1      1.536      2.437
REMARK SMILES CC(C)(C)[C@H]1NC(=O)c2c[nH]c3ncc(nc23)[C@]2(CC2)COC[C@@]2(C#N)CN(C2)C1=O
REMARK SMILES IDX 9 1 10 2 11 3 12 4 13 5 14 6 15 7 16 8 17 9 7 11 6 12 8 13
REMARK SMILES IDX 5 15 2 16 1 17 3 18 4 19 30 20 31 21 28 22 29 23 27 24 24 25
REMARK SMILES IDX 25 26 26 27 18 29 19 30 20 31 21 32 22 33 23 34
REMARK H PARENT 11 10 6 14
REMARK Flexibility Score:  106.900
ROOT
ATOM      1  C   UNL     1      33.560  11.397  -2.894  1.00  0.00     0.085 A
ATOM      2  C   UNL     1      34.553  10.652  -2.273  1.00  0.00     0.100 A
ATOM      3  N   UNL     1      34.126   9.341  -2.208  1.00  0.00    -0.344 N
ATOM      4  C   UNL     1      32.918   9.219  -2.838  1.00  0.00     0.156 A
ATOM      5  N   UNL     1      32.249   8.077  -3.094  1.00  0.00    -0.235 NA
ATOM      6  C   UNL     1      31.137   8.331  -3.848  1.00  0.00     0.138 A
ATOM      7  C   UNL     1      30.696   9.596  -4.265  1.00  0.00     0.068 A
ATOM      8  N   UNL     1      31.372  10.702  -3.893  1.00  0.00    -0.246 NA
ATOM      9  C   UNL     1      32.522  10.489  -3.217  1.00  0.00     0.120 A
ATOM     10  H   UNL     1      34.640   8.560  -1.825  1.00  0.00     0.168 HD
ENDROOT
BRANCH   1  11
ATOM     11  C   UNL     1      33.557  12.800  -3.267  1.00  0.00     0.255 C
ATOM     12  N   UNL     1      32.513  13.154  -4.085  1.00  0.00    -0.340 N
ATOM     13  O   UNL     1      34.346  13.596  -2.781  1.00  0.00    -0.269 OA
ATOM     14  H   UNL     1      31.895  12.407  -4.377  1.00  0.00     0.164 HD
BRANCH  12  15
ATOM     15  C   UNL     1      31.968  14.511  -4.208  1.00  0.00     0.177 C
BRANCH  15  16
ATOM     16  C   UNL     1      30.656  14.889  -3.442  1.00  0.00    -0.009 C
ATOM     17  C   UNL     1      31.042  15.775  -2.227  1.00  0.00     0.013 C
ATOM     18  C   UNL     1      29.824  13.733  -2.875  1.00  0.00     0.013 C
ATOM     19  C   UNL     1      29.746  15.739  -4.355  1.00  0.00     0.013 C
ENDBRANCH  15  16
BRANCH  15  20
ATOM     20  C   UNL     1      32.335  15.111  -5.601  1.00  0.00     0.245 C
ATOM     21  O   UNL     1      32.102  14.424  -6.608  1.00  0.00    -0.272 OA
BRANCH  20  22
ATOM     22  N   UNL     1      32.779  16.383  -5.772  1.00  0.00    -0.337 N
ATOM     23  C   UNL     1      33.675  17.314  -5.127  1.00  0.00     0.146 C
ATOM     24  C   UNL     1      32.223  17.416  -6.655  1.00  0.00     0.146 C
ATOM     25  C   UNL     1      32.697  18.431  -5.591  1.00  0.00     0.116 C
ATOM     26  C   UNL     1      33.367  19.605  -6.102  1.00  0.00     0.075 C
ATOM     27  N   UNL     1      33.946  20.519  -6.525  1.00  0.00    -0.197 NA
ATOM     28  G   UNL     1      31.635  18.750  -4.532  1.00  0.00     0.000 C
ENDBRANCH  20  22
ENDBRANCH  15  20
ENDBRANCH  12  15
ENDBRANCH   1  11
BRANCH   7  29
ATOM     29  C   UNL     1      29.540   9.815  -5.240  1.00  0.00     0.038 C
ATOM     30  C   UNL     1      28.444   8.757  -5.298  1.00  0.00     0.017 C
ATOM     31  C   UNL     1      29.387   8.897  -6.449  1.00  0.00     0.017 C
BRANCH  29  32
ATOM     32  C   UNL     1      29.130  11.283  -5.386  1.00  0.00     0.173 C
BRANCH  32  33
ATOM     33  O   UNL     1      27.721  11.524  -5.195  1.00  0.00    -0.379 OA
BRANCH  33  34
ATOM     34  C   UNL     1      27.181  12.512  -6.086  1.00  0.00     0.186 C
ATOM     35  G   UNL     1      26.707  13.759  -5.332  1.00  0.00     0.000 C
ENDBRANCH  33  34
ENDBRANCH  32  33
ENDBRANCH  29  32
ENDBRANCH   7  29
TORSDOF 1
ENDMDL
MODEL 9
REMARK VINA RESULT:      -8.1      0.783      1.331
REMARK SMILES CC(C)(C)[C@H]1NC(=O)c2c[nH]c3ncc(nc23)[C@]2(CC2)COC[C@@]2(C#N)CN(C2)C1=O
REMARK SMILES IDX 9 1 10 2 11 3 12 4 13 5 14 6 15 7 16 8 17 9 7 11 6 12 8 13
REMARK SMILES IDX 5 15 2 16 1 17 3 18 4 19 30 20 31 21 28 22 29 23 27 24 24 25
REMARK SMILES IDX 25 26 26 27 18 29 19 30 20 31 21 32 22 33 23 34
REMARK H PARENT 11 10 6 14
REMARK Flexibility Score:  106.900
ROOT
ATOM      1  C   UNL     1      34.137  11.982  -2.612  1.00  0.00     0.085 A
ATOM      2  C   UNL     1      35.255  11.451  -1.985  1.00  0.00     0.100 A
ATOM      3  N   UNL     1      35.026  10.108  -1.767  1.00  0.00    -0.344 N
ATOM      4  C   UNL     1      33.820   9.753  -2.307  1.00  0.00     0.156 A
ATOM      5  N   UNL     1      33.312   8.509  -2.411  1.00  0.00    -0.235 NA
ATOM      6  C   UNL     1      32.140   8.527  -3.117  1.00  0.00     0.138 A
ATOM      7  C   UNL     1      31.502   9.668  -3.625  1.00  0.00     0.068 A
ATOM      8  N   UNL     1      32.028  10.889  -3.403  1.00  0.00    -0.246 NA
ATOM      9  C   UNL     1      33.227  10.910  -2.782  1.00  0.00     0.120 A
ATOM     10  H   UNL     1      35.665   9.449  -1.343  1.00  0.00     0.168 HD
ENDROOT
BRANCH   1  11
ATOM     11  C   UNL     1      33.913  13.325  -3.117  1.00  0.00     0.255 C
ATOM     12  N   UNL     1      32.729  13.472  -3.794  1.00  0.00    -0.340 N
ATOM     13  O   UNL     1      34.662  14.248  -2.839  1.00  0.00    -0.269 OA
ATOM     14  H   UNL     1      32.169  12.637  -3.913  1.00  0.00     0.164 HD
BRANCH  12  15
ATOM     15  C   UNL     1      32.014  14.742  -3.966  1.00  0.00     0.177 C
BRANCH  15  16
ATOM     16  C   UNL     1      30.679  14.989  -3.186  1.00  0.00    -0.009 C
ATOM     17  C   UNL     1      31.036  15.342  -1.716  1.00  0.00     0.013 C
ATOM     18  C   UNL     1      29.692  13.819  -3.111  1.00  0.00     0.013 C
ATOM     19  C   UNL     1      29.943  16.208  -3.783  1.00  0.00     0.013 C
ENDBRANCH  15  16
BRANCH  15  20
ATOM     20  C   UNL     1      32.276  15.315  -5.394  1.00  0.00     0.245 C
ATOM     21  O   UNL     1      32.325  14.514  -6.340  1.00  0.00    -0.272 OA
BRANCH  20  22
ATOM     22  N   UNL     1      32.327  16.645  -5.666  1.00  0.00    -0.337 N
ATOM     23  C   UNL     1      32.071  17.535  -6.774  1.00  0.00     0.146 C
ATOM     24  C   UNL     1      32.973  17.698  -4.873  1.00  0.00     0.146 C
ATOM     25  C   UNL     1      33.236  18.405  -6.220  1.00  0.00     0.116 C
ATOM     26  C   UNL     1      32.956  19.823  -6.248  1.00  0.00     0.075 C
ATOM     27  N   UNL     1      32.682  20.951  -6.267  1.00  0.00    -0.197 NA
ATOM     28  G   UNL     1      34.584  18.039  -6.852  1.00  0.00     0.000 C
ENDBRANCH  20  22
ENDBRANCH  15  20
ENDBRANCH  12  15
ENDBRANCH   1  11
BRANCH   7  29
ATOM     29  C   UNL     1      30.282   9.622  -4.544  1.00  0.00     0.038 C
ATOM     30  C   UNL     1      29.932  10.880  -5.331  1.00  0.00     0.017 C
ATOM     31  C   UNL     1      29.049  10.453  -4.205  1.00  0.00     0.017 C
BRANCH  29  32
ATOM     32  C   UNL     1      30.079   8.267  -5.228  1.00  0.00     0.173 C
BRANCH  32  33
ATOM     33  O   UNL     1      29.627   8.357  -6.595  1.00  0.00    -0.379 OA
BRANCH  33  34
ATOM     34  C   UNL     1      28.693   7.330  -6.960  1.00  0.00     0.186 C
ATOM     35  G   UNL     1      28.128   6.613  -5.729  1.00  0.00     0.000 C
ENDBRANCH  33  34
ENDBRANCH  32  33
ENDBRANCH  29  32
ENDBRANCH   7  29
TORSDOF 1
ENDMDL
