MODEL 1
REMARK VINA RESULT:      -7.9      0.000      0.000
REMARK SMILES N#C[C@H]1CCN(C(=O)[C@@H]2NC(=O)c3c[nH]c4ncc(nc34)[C@@H]3C[C@H]3CCCC23CC3)C1
REMARK SMILES IDX 10 1 11 2 12 3 9 5 7 6 8 7 6 8 1 9 2 10 3 11 4 12 31 13 5 14
REMARK SMILES IDX 28 15 29 16 30 17 27 18 26 19 13 21 14 22 21 23 15 24 20 25
REMARK SMILES IDX 16 26 19 27 17 28 18 29 22 31 23 32 24 33 25 34
REMARK H PARENT 10 4 15 30
REMARK Flexibility Score:   57.900
ROOT
ATOM      1  N   UNL     1      29.841  14.125  -5.114  1.00  0.00    -0.340 N
ATOM      2  C   UNL     1      28.707  13.400  -5.389  1.00  0.00     0.255 C
ATOM      3  O   UNL     1      28.378  12.396  -4.765  1.00  0.00    -0.269 OA
ATOM      4  H   UNL     1      30.044  14.922  -5.711  1.00  0.00     0.164 HD
ENDROOT
BRANCH   1   5
ATOM      5  C   UNL     1      30.820  13.751  -4.117  1.00  0.00     0.178 C
BRANCH   5   6
ATOM      6  C   UNL     1      31.838  12.757  -4.750  1.00  0.00     0.245 C
ATOM      7  O   UNL     1      32.434  13.016  -5.800  1.00  0.00    -0.272 OA
BRANCH   6   8
ATOM      8  N   UNL     1      32.039  11.545  -4.117  1.00  0.00    -0.340 N
ATOM      9  N   UNL     1      34.575   9.028  -1.035  1.00  0.00    -0.198 NA
ATOM     10  C   UNL     1      34.014   9.362  -1.994  1.00  0.00     0.067 C
ATOM     11  C   UNL     1      33.299   9.777  -3.200  1.00  0.00     0.114 C
ATOM     12  C   UNL     1      31.818   9.402  -3.168  1.00  0.00     0.042 C
ATOM     13  C   UNL     1      33.251  11.292  -3.350  1.00  0.00     0.138 C
ATOM     14  C   UNL     1      31.202  10.358  -4.181  1.00  0.00     0.121 C
ENDBRANCH   6   8
ENDBRANCH   5   6
BRANCH   5  15
ATOM     15  C   UNL     1      31.504  15.024  -3.570  1.00  0.00    -0.000 C
ATOM     16  C   UNL     1      31.488  15.210  -2.055  1.00  0.00     0.010 C
ATOM     17  C   UNL     1      32.761  14.822  -2.735  1.00  0.00     0.010 C
BRANCH  15  18
ATOM     18  C   UNL     1      31.502  16.256  -4.496  1.00  0.00     0.010 C
BRANCH  18  19
ATOM     19  C   UNL     1      32.880  16.626  -5.069  1.00  0.00     0.001 C
ATOM     20  G   UNL     1      32.883  16.837  -6.595  1.00  0.00     0.000 C
ENDBRANCH  18  19
ENDBRANCH  15  18
ENDBRANCH   5  15
ENDBRANCH   1   5
BRANCH   2  21
ATOM     21  C   UNL     1      27.937  13.929  -6.511  1.00  0.00     0.085 A
ATOM     22  C   UNL     1      27.277  13.214  -7.500  1.00  0.00     0.100 A
ATOM     23  C   UNL     1      27.724  15.295  -6.820  1.00  0.00     0.120 A
ATOM     24  N   UNL     1      26.702  14.108  -8.380  1.00  0.00    -0.344 N
ATOM     25  N   UNL     1      28.157  16.391  -6.156  1.00  0.00    -0.247 NA
ATOM     26  C   UNL     1      26.976  15.388  -7.979  1.00  0.00     0.156 A
ATOM     27  C   UNL     1      27.826  17.573  -6.719  1.00  0.00     0.063 A
ATOM     28  N   UNL     1      26.599  16.534  -8.585  1.00  0.00    -0.235 NA
ATOM     29  C   UNL     1      27.067  17.618  -7.895  1.00  0.00     0.137 A
ATOM     30  H   UNL     1      26.167  13.876  -9.204  1.00  0.00     0.168 HD
BRANCH  27  31
ATOM     31  C   UNL     1      28.292  18.796  -5.971  1.00  0.00     0.043 C
ATOM     32  C   UNL     1      28.398  20.180  -6.556  1.00  0.00     0.014 C
ATOM     33  C   UNL     1      29.644  19.350  -6.420  1.00  0.00    -0.001 C
BRANCH  33  34
ATOM     34  C   UNL     1      30.707  19.587  -5.388  1.00  0.00     0.004 C
ATOM     35  G   UNL     1      31.630  20.760  -5.769  1.00  0.00     0.000 C
ENDBRANCH  33  34
ENDBRANCH  27  31
ENDBRANCH   2  21
TORSDOF 2
ENDMDL
MODEL 2
REMARK VINA RESULT:      -7.9      2.345      7.760
REMARK SMILES N#C[C@H]1CCN(C(=O)[C@@H]2NC(=O)c3c[nH]c4ncc(nc34)[C@@H]3C[C@H]3CCCC23CC3)C1
REMARK SMILES IDX 10 1 11 2 12 3 9 5 7 6 8 7 6 8 1 9 2 10 3 11 4 12 31 13 5 14
REMARK SMILES IDX 28 15 29 16 30 17 27 18 26 19 13 21 14 22 21 23 15 24 20 25
REMARK SMILES IDX 16 26 19 27 17 28 18 29 22 31 23 32 24 33 25 34
REMARK H PARENT 10 4 15 30
REMARK Flexibility Score:   57.900
ROOT
ATOM      1  N   UNL     1      29.513  15.634  -5.535  1.00  0.00    -0.340 N
ATOM      2  C   UNL     1      28.689  14.960  -6.403  1.00  0.00     0.255 C
ATOM      3  O   UNL     1      28.317  15.421  -7.477  1.00  0.00    -0.269 OA
ATOM      4  H   UNL     1      29.737  15.181  -4.653  1.00  0.00     0.164 HD
ENDROOT
BRANCH   1   5
ATOM      5  C   UNL     1      29.971  16.991  -5.741  1.00  0.00     0.178 C
BRANCH   5   6
ATOM      6  C   UNL     1      28.865  17.980  -5.270  1.00  0.00     0.245 C
ATOM      7  O   UNL     1      28.359  17.903  -4.146  1.00  0.00    -0.272 OA
BRANCH   6   8
ATOM      8  N   UNL     1      28.433  18.942  -6.163  1.00  0.00    -0.340 N
ATOM      9  N   UNL     1      24.946  20.575  -8.890  1.00  0.00    -0.198 NA
ATOM     10  C   UNL     1      25.985  20.215  -8.521  1.00  0.00     0.067 C
ATOM     11  C   UNL     1      27.298  19.771  -8.055  1.00  0.00     0.114 C
ATOM     12  C   UNL     1      28.118  20.900  -7.430  1.00  0.00     0.042 C
ATOM     13  C   UNL     1      27.196  18.769  -6.911  1.00  0.00     0.138 C
ATOM     14  C   UNL     1      29.127  20.154  -6.569  1.00  0.00     0.121 C
ENDBRANCH   6   8
ENDBRANCH   5   6
BRANCH   5  15
ATOM     15  C   UNL     1      31.306  17.199  -4.989  1.00  0.00    -0.000 C
ATOM     16  C   UNL     1      32.417  17.911  -5.756  1.00  0.00     0.010 C
ATOM     17  C   UNL     1      31.694  18.635  -4.667  1.00  0.00     0.010 C
BRANCH  15  18
ATOM     18  C   UNL     1      31.661  16.149  -3.918  1.00  0.00     0.010 C
BRANCH  18  19
ATOM     19  C   UNL     1      31.050  16.419  -2.533  1.00  0.00     0.001 C
ATOM     20  G   UNL     1      31.103  15.207  -1.584  1.00  0.00     0.000 C
ENDBRANCH  18  19
ENDBRANCH  15  18
ENDBRANCH   5  15
ENDBRANCH   1   5
BRANCH   2  21
ATOM     21  C   UNL     1      28.284  13.644  -5.917  1.00  0.00     0.085 A
ATOM     22  C   UNL     1      27.007  13.102  -5.900  1.00  0.00     0.100 A
ATOM     23  C   UNL     1      29.126  12.660  -5.343  1.00  0.00     0.120 A
ATOM     24  N   UNL     1      27.070  11.848  -5.327  1.00  0.00    -0.344 N
ATOM     25  N   UNL     1      30.462  12.703  -5.139  1.00  0.00    -0.247 NA
ATOM     26  C   UNL     1      28.362  11.567  -4.973  1.00  0.00     0.156 A
ATOM     27  C   UNL     1      30.986  11.616  -4.530  1.00  0.00     0.063 A
ATOM     28  N   UNL     1      28.823  10.448  -4.376  1.00  0.00    -0.235 NA
ATOM     29  C   UNL     1      30.172  10.534  -4.172  1.00  0.00     0.137 A
ATOM     30  H   UNL     1      26.293  11.221  -5.173  1.00  0.00     0.168 HD
BRANCH  27  31
ATOM     31  C   UNL     1      32.478  11.654  -4.317  1.00  0.00     0.043 C
ATOM     32  C   UNL     1      33.227  10.841  -3.293  1.00  0.00     0.014 C
ATOM     33  C   UNL     1      32.925  12.284  -2.998  1.00  0.00    -0.001 C
BRANCH  33  34
ATOM     34  C   UNL     1      33.945  13.384  -3.031  1.00  0.00     0.004 C
ATOM     35  G   UNL     1      35.231  13.001  -2.273  1.00  0.00     0.000 C
ENDBRANCH  33  34
ENDBRANCH  27  31
ENDBRANCH   2  21
TORSDOF 2
ENDMDL
MODEL 3
REMARK VINA RESULT:      -7.8      2.536      8.500
REMARK SMILES N#C[C@H]1CCN(C(=O)[C@@H]2NC(=O)c3c[nH]c4ncc(nc34)[C@@H]3C[C@H]3CCCC23CC3)C1
REMARK SMILES IDX 10 1 11 2 12 3 9 5 7 6 8 7 6 8 1 9 2 10 3 11 4 12 31 13 5 14
REMARK SMILES IDX 28 15 29 16 30 17 27 18 26 19 13 21 14 22 21 23 15 24 20 25
REMARK SMILES IDX 16 26 19 27 17 28 18 29 22 31 23 32 24 33 25 34
REMARK H PARENT 10 4 15 30
REMARK Flexibility Score:   57.900
ROOT
ATOM      1  N   UNL     1      32.111  13.758  -3.960  1.00  0.00    -0.340 N
ATOM      2  C   UNL     1      33.017  14.087  -2.980  1.00  0.00     0.255 C
ATOM      3  O   UNL     1      33.077  15.197  -2.461  1.00  0.00    -0.269 OA
ATOM      4  H   UNL     1      32.164  12.821  -4.351  1.00  0.00     0.164 HD
ENDROOT
BRANCH   1   5
ATOM      5  C   UNL     1      31.180  14.694  -4.551  1.00  0.00     0.178 C
BRANCH   5   6
ATOM      6  C   UNL     1      31.863  15.396  -5.761  1.00  0.00     0.245 C
ATOM      7  O   UNL     1      32.469  14.758  -6.627  1.00  0.00    -0.272 OA
BRANCH   6   8
ATOM      8  N   UNL     1      31.801  16.775  -5.830  1.00  0.00    -0.340 N
ATOM      9  N   UNL     1      34.071  20.894  -5.449  1.00  0.00    -0.198 NA
ATOM     10  C   UNL     1      33.285  20.048  -5.329  1.00  0.00     0.067 C
ATOM     11  C   UNL     1      32.289  18.988  -5.183  1.00  0.00     0.114 C
ATOM     12  C   UNL     1      31.233  19.012  -6.288  1.00  0.00     0.042 C
ATOM     13  C   UNL     1      32.897  17.599  -5.342  1.00  0.00     0.138 C
ATOM     14  C   UNL     1      30.681  17.594  -6.264  1.00  0.00     0.121 C
ENDBRANCH   6   8
ENDBRANCH   5   6
BRANCH   5  15
ATOM     15  C   UNL     1      29.891  13.944  -4.956  1.00  0.00    -0.000 C
ATOM     16  C   UNL     1      30.034  12.455  -5.260  1.00  0.00     0.010 C
ATOM     17  C   UNL     1      29.381  12.886  -3.988  1.00  0.00     0.010 C
BRANCH  15  18
ATOM     18  C   UNL     1      28.810  14.775  -5.675  1.00  0.00     0.010 C
BRANCH  18  19
ATOM     19  C   UNL     1      27.453  14.818  -4.954  1.00  0.00     0.001 C
ATOM     20  G   UNL     1      26.634  16.089  -5.245  1.00  0.00     0.000 C
ENDBRANCH  18  19
ENDBRANCH  15  18
ENDBRANCH   5  15
ENDBRANCH   1   5
BRANCH   2  21
ATOM     21  C   UNL     1      33.916  12.993  -2.628  1.00  0.00     0.085 A
ATOM     22  C   UNL     1      35.242  13.078  -2.229  1.00  0.00     0.100 A
ATOM     23  C   UNL     1      33.609  11.610  -2.640  1.00  0.00     0.120 A
ATOM     24  N   UNL     1      35.723  11.801  -2.024  1.00  0.00    -0.344 N
ATOM     25  N   UNL     1      32.440  11.005  -2.954  1.00  0.00    -0.247 NA
ATOM     26  C   UNL     1      34.734  10.890  -2.280  1.00  0.00     0.156 A
ATOM     27  C   UNL     1      32.462   9.654  -2.911  1.00  0.00     0.063 A
ATOM     28  N   UNL     1      34.820   9.546  -2.204  1.00  0.00    -0.235 NA
ATOM     29  C   UNL     1      33.626   8.969  -2.542  1.00  0.00     0.137 A
ATOM     30  H   UNL     1      36.660  11.553  -1.739  1.00  0.00     0.168 HD
BRANCH  27  31
ATOM     31  C   UNL     1      31.157   8.979  -3.243  1.00  0.00     0.043 C
ATOM     32  C   UNL     1      31.023   7.624  -3.889  1.00  0.00     0.014 C
ATOM     33  C   UNL     1      30.856   8.855  -4.736  1.00  0.00    -0.001 C
BRANCH  33  34
ATOM     34  C   UNL     1      29.537   9.351  -5.252  1.00  0.00     0.004 C
ATOM     35  G   UNL     1      29.098   8.604  -6.525  1.00  0.00     0.000 C
ENDBRANCH  33  34
ENDBRANCH  27  31
ENDBRANCH   2  21
TORSDOF 2
ENDMDL
MODEL 4
REMARK VINA RESULT:      -7.7      2.523      8.114
REMARK SMILES N#C[C@H]1CCN(C(=O)[C@@H]2NC(=O)c3c[nH]c4ncc(nc34)[C@@H]3C[C@H]3CCCC23CC3)C1
REMARK SMILES IDX 10 1 11 2 12 3 9 5 7 6 8 7 6 8 1 9 2 10 3 11 4 12 31 13 5 14
REMARK SMILES IDX 28 15 29 16 30 17 27 18 26 19 13 21 14 22 21 23 15 24 20 25
REMARK SMILES IDX 16 26 19 27 17 28 18 29 22 31 23 32 24 33 25 34
REMARK H PARENT 10 4 15 30
REMARK Flexibility Score:   57.900
ROOT
ATOM      1  N   UNL     1      31.236  15.092  -4.422  1.00  0.00    -0.340 N
ATOM      2  C   UNL     1      31.878  15.394  -3.245  1.00  0.00     0.255 C
ATOM      3  O   UNL     1      31.524  16.298  -2.495  1.00  0.00    -0.269 OA
ATOM      4  H   UNL     1      31.628  14.347  -4.992  1.00  0.00     0.164 HD
ENDROOT
BRANCH   1   5
ATOM      5  C   UNL     1      30.124  15.847  -4.956  1.00  0.00     0.178 C
BRANCH   5   6
ATOM      6  C   UNL     1      30.552  16.503  -6.302  1.00  0.00     0.245 C
ATOM      7  O   UNL     1      29.881  16.376  -7.330  1.00  0.00    -0.272 OA
BRANCH   6   8
ATOM      8  N   UNL     1      31.735  17.217  -6.327  1.00  0.00    -0.340 N
ATOM      9  N   UNL     1      34.057  21.135  -5.092  1.00  0.00    -0.198 NA
ATOM     10  C   UNL     1      33.624  20.255  -5.712  1.00  0.00     0.067 C
ATOM     11  C   UNL     1      33.087  19.141  -6.491  1.00  0.00     0.114 C
ATOM     12  C   UNL     1      33.983  17.903  -6.449  1.00  0.00     0.042 C
ATOM     13  C   UNL     1      31.776  18.615  -5.921  1.00  0.00     0.138 C
ATOM     14  C   UNL     1      33.029  16.777  -6.823  1.00  0.00     0.121 C
ENDBRANCH   6   8
ENDBRANCH   5   6
BRANCH   5  15
ATOM     15  C   UNL     1      28.903  14.913  -5.119  1.00  0.00    -0.000 C
ATOM     16  C   UNL     1      29.109  13.664  -5.972  1.00  0.00     0.010 C
ATOM     17  C   UNL     1      29.009  13.532  -4.487  1.00  0.00     0.010 C
BRANCH  15  18
ATOM     18  C   UNL     1      27.515  15.579  -5.052  1.00  0.00     0.010 C
BRANCH  18  19
ATOM     19  C   UNL     1      27.547  17.113  -4.956  1.00  0.00     0.001 C
ATOM     20  G   UNL     1      26.861  17.825  -6.138  1.00  0.00     0.000 C
ENDBRANCH  18  19
ENDBRANCH  15  18
ENDBRANCH   5  15
ENDBRANCH   1   5
BRANCH   2  21
ATOM     21  C   UNL     1      33.036  14.546  -2.981  1.00  0.00     0.085 A
ATOM     22  C   UNL     1      34.336  14.947  -2.707  1.00  0.00     0.100 A
ATOM     23  C   UNL     1      33.061  13.130  -2.969  1.00  0.00     0.120 A
ATOM     24  N   UNL     1      35.119  13.821  -2.551  1.00  0.00    -0.344 N
ATOM     25  N   UNL     1      32.043  12.263  -3.174  1.00  0.00    -0.247 NA
ATOM     26  C   UNL     1      34.352  12.700  -2.717  1.00  0.00     0.156 A
ATOM     27  C   UNL     1      32.384  10.956  -3.138  1.00  0.00     0.063 A
ATOM     28  N   UNL     1      34.756  11.414  -2.653  1.00  0.00    -0.235 NA
ATOM     29  C   UNL     1      33.705  10.568  -2.881  1.00  0.00     0.137 A
ATOM     30  H   UNL     1      36.109  13.803  -2.355  1.00  0.00     0.168 HD
BRANCH  27  31
ATOM     31  C   UNL     1      31.248   9.988  -3.350  1.00  0.00     0.043 C
ATOM     32  C   UNL     1      31.389   8.600  -3.917  1.00  0.00     0.014 C
ATOM     33  C   UNL     1      30.904   9.707  -4.811  1.00  0.00    -0.001 C
BRANCH  33  34
ATOM     34  C   UNL     1      29.482   9.866  -5.263  1.00  0.00     0.004 C
ATOM     35  G   UNL     1      29.072   8.775  -6.271  1.00  0.00     0.000 C
ENDBRANCH  33  34
ENDBRANCH  27  31
ENDBRANCH   2  21
TORSDOF 2
ENDMDL
MODEL 5
REMARK VINA RESULT:      -7.5      0.931      1.345
REMARK SMILES N#C[C@H]1CCN(C(=O)[C@@H]2NC(=O)c3c[nH]c4ncc(nc34)[C@@H]3C[C@H]3CCCC23CC3)C1
REMARK SMILES IDX 10 1 11 2 12 3 9 5 7 6 8 7 6 8 1 9 2 10 3 11 4 12 31 13 5 14
REMARK SMILES IDX 28 15 29 16 30 17 27 18 26 19 13 21 14 22 21 23 15 24 20 25
REMARK SMILES IDX 16 26 19 27 17 28 18 29 22 31 23 32 24 33 25 34
REMARK H PARENT 10 4 15 30
REMARK Flexibility Score:   57.900
ROOT
ATOM      1  N   UNL     1      29.779  14.148  -5.169  1.00  0.00    -0.340 N
ATOM      2  C   UNL     1      28.622  13.479  -5.487  1.00  0.00     0.255 C
ATOM      3  O   UNL     1      28.233  12.481  -4.891  1.00  0.00    -0.269 OA
ATOM      4  H   UNL     1      30.034  14.946  -5.745  1.00  0.00     0.164 HD
ENDROOT
BRANCH   1   5
ATOM      5  C   UNL     1      30.715  13.712  -4.155  1.00  0.00     0.178 C
BRANCH   5   6
ATOM      6  C   UNL     1      31.770  12.771  -4.806  1.00  0.00     0.245 C
ATOM      7  O   UNL     1      32.394  13.096  -5.822  1.00  0.00    -0.272 OA
BRANCH   6   8
ATOM      8  N   UNL     1      31.975  11.531  -4.231  1.00  0.00    -0.340 N
ATOM      9  N   UNL     1      30.944   6.927  -4.206  1.00  0.00    -0.198 NA
ATOM     10  C   UNL     1      31.126   8.021  -3.867  1.00  0.00     0.067 C
ATOM     11  C   UNL     1      31.365   9.397  -3.436  1.00  0.00     0.114 C
ATOM     12  C   UNL     1      32.829   9.662  -3.083  1.00  0.00     0.042 C
ATOM     13  C   UNL     1      31.111  10.404  -4.552  1.00  0.00     0.138 C
ATOM     14  C   UNL     1      32.942  11.175  -3.205  1.00  0.00     0.121 C
ENDBRANCH   6   8
ENDBRANCH   5   6
BRANCH   5  15
ATOM     15  C   UNL     1      31.360  14.949  -3.490  1.00  0.00    -0.000 C
ATOM     16  C   UNL     1      31.270  15.030  -1.968  1.00  0.00     0.010 C
ATOM     17  C   UNL     1      32.577  14.697  -2.611  1.00  0.00     0.010 C
BRANCH  15  18
ATOM     18  C   UNL     1      31.391  16.241  -4.328  1.00  0.00     0.010 C
BRANCH  18  19
ATOM     19  C   UNL     1      32.762  16.571  -4.942  1.00  0.00     0.001 C
ATOM     20  G   UNL     1      32.752  16.647  -6.481  1.00  0.00     0.000 C
ENDBRANCH  18  19
ENDBRANCH  15  18
ENDBRANCH   5  15
ENDBRANCH   1   5
BRANCH   2  21
ATOM     21  C   UNL     1      27.905  14.063  -6.617  1.00  0.00     0.085 A
ATOM     22  C   UNL     1      27.261  13.397  -7.650  1.00  0.00     0.100 A
ATOM     23  C   UNL     1      27.740  15.443  -6.891  1.00  0.00     0.120 A
ATOM     24  N   UNL     1      26.742  14.333  -8.520  1.00  0.00    -0.344 N
ATOM     25  N   UNL     1      28.179  16.506  -6.178  1.00  0.00    -0.247 NA
ATOM     26  C   UNL     1      27.035  15.592  -8.072  1.00  0.00     0.156 A
ATOM     27  C   UNL     1      27.898  17.714  -6.715  1.00  0.00     0.063 A
ATOM     28  N   UNL     1      26.710  16.765  -8.654  1.00  0.00    -0.235 NA
ATOM     29  C   UNL     1      27.183  17.815  -7.914  1.00  0.00     0.137 A
ATOM     30  H   UNL     1      26.230  14.141  -9.370  1.00  0.00     0.168 HD
BRANCH  27  31
ATOM     31  C   UNL     1      28.371  18.900  -5.915  1.00  0.00     0.043 C
ATOM     32  C   UNL     1      28.474  20.310  -6.435  1.00  0.00     0.014 C
ATOM     33  C   UNL     1      29.720  19.473  -6.346  1.00  0.00    -0.001 C
BRANCH  33  34
ATOM     34  C   UNL     1      30.790  19.661  -5.311  1.00  0.00     0.004 C
ATOM     35  G   UNL     1      31.099  21.150  -5.065  1.00  0.00     0.000 C
ENDBRANCH  33  34
ENDBRANCH  27  31
ENDBRANCH   2  21
TORSDOF 2
ENDMDL
MODEL 6
REMARK VINA RESULT:      -7.5      2.548      7.271
REMARK SMILES N#C[C@H]1CCN(C(=O)[C@@H]2NC(=O)c3c[nH]c4ncc(nc34)[C@@H]3C[C@H]3CCCC23CC3)C1
REMARK SMILES IDX 10 1 11 2 12 3 9 5 7 6 8 7 6 8 1 9 2 10 3 11 4 12 31 13 5 14
REMARK SMILES IDX 28 15 29 16 30 17 27 18 26 19 13 21 14 22 21 23 15 24 20 25
REMARK SMILES IDX 16 26 19 27 17 28 18 29 22 31 23 32 24 33 25 34
REMARK H PARENT 10 4 15 30
REMARK Flexibility Score:   57.900
ROOT
ATOM      1  N   UNL     1      30.108  14.608  -4.514  1.00  0.00    -0.340 N
ATOM      2  C   UNL     1      29.429  14.388  -5.689  1.00  0.00     0.255 C
ATOM      3  O   UNL     1      29.594  15.062  -6.700  1.00  0.00    -0.269 OA
ATOM      4  H   UNL     1      29.876  14.016  -3.721  1.00  0.00     0.164 HD
ENDROOT
BRANCH   1   5
ATOM      5  C   UNL     1      31.031  15.701  -4.304  1.00  0.00     0.178 C
BRANCH   5   6
ATOM      6  C   UNL     1      30.238  17.041  -4.281  1.00  0.00     0.245 C
ATOM      7  O   UNL     1      29.079  17.104  -3.857  1.00  0.00    -0.272 OA
BRANCH   6   8
ATOM      8  N   UNL     1      30.857  18.170  -4.782  1.00  0.00    -0.340 N
ATOM      9  N   UNL     1      34.703  20.067  -6.750  1.00  0.00    -0.198 NA
ATOM     10  C   UNL     1      33.797  19.879  -6.050  1.00  0.00     0.067 C
ATOM     11  C   UNL     1      32.650  19.649  -5.174  1.00  0.00     0.114 C
ATOM     12  C   UNL     1      31.361  20.274  -5.708  1.00  0.00     0.042 C
ATOM     13  C   UNL     1      32.282  18.173  -5.079  1.00  0.00     0.138 C
ATOM     14  C   UNL     1      30.276  19.486  -4.989  1.00  0.00     0.121 C
ENDBRANCH   6   8
ENDBRANCH   5   6
BRANCH   5  15
ATOM     15  C   UNL     1      31.818  15.461  -2.995  1.00  0.00    -0.000 C
ATOM     16  C   UNL     1      31.305  16.179  -1.749  1.00  0.00     0.010 C
ATOM     17  C   UNL     1      31.093  14.706  -1.890  1.00  0.00     0.010 C
BRANCH  15  18
ATOM     18  C   UNL     1      33.321  15.157  -3.144  1.00  0.00     0.010 C
BRANCH  18  19
ATOM     19  C   UNL     1      33.677  13.662  -3.104  1.00  0.00     0.001 C
ATOM     20  G   UNL     1      35.072  13.369  -2.520  1.00  0.00     0.000 C
ENDBRANCH  18  19
ENDBRANCH  15  18
ENDBRANCH   5  15
ENDBRANCH   1   5
BRANCH   2  21
ATOM     21  C   UNL     1      28.478  13.284  -5.613  1.00  0.00     0.085 A
ATOM     22  C   UNL     1      27.105  13.332  -5.806  1.00  0.00     0.100 A
ATOM     23  C   UNL     1      28.774  11.933  -5.306  1.00  0.00     0.120 A
ATOM     24  N   UNL     1      26.589  12.067  -5.609  1.00  0.00    -0.344 N
ATOM     25  N   UNL     1      29.975  11.368  -5.041  1.00  0.00    -0.247 NA
ATOM     26  C   UNL     1      27.600  11.201  -5.294  1.00  0.00     0.156 A
ATOM     27  C   UNL     1      29.938  10.051  -4.744  1.00  0.00     0.063 A
ATOM     28  N   UNL     1      27.495   9.884  -5.020  1.00  0.00    -0.235 NA
ATOM     29  C   UNL     1      28.725   9.352  -4.743  1.00  0.00     0.137 A
ATOM     30  H   UNL     1      25.617  11.801  -5.672  1.00  0.00     0.168 HD
BRANCH  27  31
ATOM     31  C   UNL     1      31.276   9.416  -4.465  1.00  0.00     0.043 C
ATOM     32  C   UNL     1      31.487   8.162  -3.657  1.00  0.00     0.014 C
ATOM     33  C   UNL     1      31.737   9.496  -3.011  1.00  0.00    -0.001 C
BRANCH  33  34
ATOM     34  C   UNL     1      33.101  10.047  -2.714  1.00  0.00     0.004 C
ATOM     35  G   UNL     1      33.935   9.087  -1.845  1.00  0.00     0.000 C
ENDBRANCH  33  34
ENDBRANCH  27  31
ENDBRANCH   2  21
TORSDOF 2
ENDMDL
MODEL 7
REMARK VINA RESULT:      -7.4      2.779      8.320
REMARK SMILES N#C[C@H]1CCN(C(=O)[C@@H]2NC(=O)c3c[nH]c4ncc(nc34)[C@@H]3C[C@H]3CCCC23CC3)C1
REMARK SMILES IDX 10 1 11 2 12 3 9 5 7 6 8 7 6 8 1 9 2 10 3 11 4 12 31 13 5 14
REMARK SMILES IDX 28 15 29 16 30 17 27 18 26 19 13 21 14 22 21 23 15 24 20 25
REMARK SMILES IDX 16 26 19 27 17 28 18 29 22 31 23 32 24 33 25 34
REMARK H PARENT 10 4 15 30
REMARK Flexibility Score:   57.900
ROOT
ATOM      1  N   UNL     1      32.186  14.965  -3.887  1.00  0.00    -0.340 N
ATOM      2  C   UNL     1      33.458  14.870  -3.378  1.00  0.00     0.255 C
ATOM      3  O   UNL     1      34.233  15.818  -3.313  1.00  0.00    -0.269 OA
ATOM      4  H   UNL     1      31.632  14.114  -3.930  1.00  0.00     0.164 HD
ENDROOT
BRANCH   1   5
ATOM      5  C   UNL     1      31.638  16.166  -4.479  1.00  0.00     0.178 C
BRANCH   5   6
ATOM      6  C   UNL     1      32.386  16.465  -5.812  1.00  0.00     0.245 C
ATOM      7  O   UNL     1      32.578  15.589  -6.661  1.00  0.00    -0.272 OA
BRANCH   6   8
ATOM      8  N   UNL     1      32.865  17.745  -6.013  1.00  0.00    -0.340 N
ATOM      9  N   UNL     1      33.120  22.197  -4.470  1.00  0.00    -0.198 NA
ATOM     10  C   UNL     1      32.968  21.269  -5.149  1.00  0.00     0.067 C
ATOM     11  C   UNL     1      32.785  20.101  -6.009  1.00  0.00     0.114 C
ATOM     12  C   UNL     1      34.084  19.647  -6.675  1.00  0.00     0.042 C
ATOM     13  C   UNL     1      32.371  18.863  -5.222  1.00  0.00     0.138 C
ATOM     14  C   UNL     1      33.794  18.197  -7.036  1.00  0.00     0.121 C
ENDBRANCH   6   8
ENDBRANCH   5   6
BRANCH   5  15
ATOM     15  C   UNL     1      30.117  15.985  -4.686  1.00  0.00    -0.000 C
ATOM     16  C   UNL     1      29.222  17.117  -4.188  1.00  0.00     0.010 C
ATOM     17  C   UNL     1      29.439  16.943  -5.656  1.00  0.00     0.010 C
BRANCH  15  18
ATOM     18  C   UNL     1      29.592  14.536  -4.693  1.00  0.00     0.010 C
BRANCH  18  19
ATOM     19  C   UNL     1      29.066  14.055  -6.055  1.00  0.00     0.001 C
ATOM     20  G   UNL     1      27.546  13.805  -6.082  1.00  0.00     0.000 C
ENDBRANCH  18  19
ENDBRANCH  15  18
ENDBRANCH   5  15
ENDBRANCH   1   5
BRANCH   2  21
ATOM     21  C   UNL     1      33.807  13.523  -2.936  1.00  0.00     0.085 A
ATOM     22  C   UNL     1      34.876  13.142  -2.136  1.00  0.00     0.100 A
ATOM     23  C   UNL     1      33.123  12.325  -3.255  1.00  0.00     0.120 A
ATOM     24  N   UNL     1      34.849  11.771  -1.991  1.00  0.00    -0.344 N
ATOM     25  N   UNL     1      32.009  12.160  -4.005  1.00  0.00    -0.247 NA
ATOM     26  C   UNL     1      33.784  11.255  -2.678  1.00  0.00     0.156 A
ATOM     27  C   UNL     1      31.608  10.880  -4.165  1.00  0.00     0.063 A
ATOM     28  N   UNL     1      33.429   9.958  -2.786  1.00  0.00    -0.235 NA
ATOM     29  C   UNL     1      32.310   9.829  -3.563  1.00  0.00     0.137 A
ATOM     30  H   UNL     1      35.510  11.211  -1.470  1.00  0.00     0.168 HD
BRANCH  27  31
ATOM     31  C   UNL     1      30.357  10.695  -4.986  1.00  0.00     0.043 C
ATOM     32  C   UNL     1      28.951  10.798  -4.455  1.00  0.00     0.014 C
ATOM     33  C   UNL     1      29.554   9.436  -4.662  1.00  0.00    -0.001 C
BRANCH  33  34
ATOM     34  C   UNL     1      29.180   8.509  -5.782  1.00  0.00     0.004 C
ATOM     35  G   UNL     1      29.605   7.056  -5.494  1.00  0.00     0.000 C
ENDBRANCH  33  34
ENDBRANCH  27  31
ENDBRANCH   2  21
TORSDOF 2
ENDMDL
MODEL 8
REMARK VINA RESULT:      -7.4      1.359      1.872
REMARK SMILES N#C[C@H]1CCN(C(=O)[C@@H]2NC(=O)c3c[nH]c4ncc(nc34)[C@@H]3C[C@H]3CCCC23CC3)C1
REMARK SMILES IDX 10 1 11 2 12 3 9 5 7 6 8 7 6 8 1 9 2 10 3 11 4 12 31 13 5 14
REMARK SMILES IDX 28 15 29 16 30 17 27 18 26 19 13 21 14 22 21 23 15 24 20 25
REMARK SMILES IDX 16 26 19 27 17 28 18 29 22 31 23 32 24 33 25 34
REMARK H PARENT 10 4 15 30
REMARK Flexibility Score:   57.900
ROOT
ATOM      1  N   UNL     1      30.253  14.440  -4.736  1.00  0.00    -0.340 N
ATOM      2  C   UNL     1      28.904  14.181  -4.751  1.00  0.00     0.255 C
ATOM      3  O   UNL     1      28.365  13.360  -4.016  1.00  0.00    -0.269 OA
ATOM      4  H   UNL     1      30.609  15.114  -5.409  1.00  0.00     0.164 HD
ENDROOT
BRANCH   1   5
ATOM      5  C   UNL     1      31.207  13.724  -3.917  1.00  0.00     0.178 C
BRANCH   5   6
ATOM      6  C   UNL     1      31.895  12.624  -4.778  1.00  0.00     0.245 C
ATOM      7  O   UNL     1      32.305  12.854  -5.920  1.00  0.00    -0.272 OA
BRANCH   6   8
ATOM      8  N   UNL     1      32.010  11.357  -4.239  1.00  0.00    -0.340 N
ATOM      9  N   UNL     1      30.740   6.816  -4.417  1.00  0.00    -0.198 NA
ATOM     10  C   UNL     1      30.964   7.888  -4.032  1.00  0.00     0.067 C
ATOM     11  C   UNL     1      31.256   9.235  -3.544  1.00  0.00     0.114 C
ATOM     12  C   UNL     1      32.715   9.409  -3.123  1.00  0.00     0.042 C
ATOM     13  C   UNL     1      31.103  10.290  -4.633  1.00  0.00     0.138 C
ATOM     14  C   UNL     1      32.912  10.916  -3.187  1.00  0.00     0.121 C
ENDBRANCH   6   8
ENDBRANCH   5   6
BRANCH   5  15
ATOM     15  C   UNL     1      32.222  14.726  -3.322  1.00  0.00    -0.000 C
ATOM     16  C   UNL     1      32.640  14.494  -1.872  1.00  0.00     0.010 C
ATOM     17  C   UNL     1      33.600  14.181  -2.974  1.00  0.00     0.010 C
BRANCH  15  18
ATOM     18  C   UNL     1      32.190  16.157  -3.893  1.00  0.00     0.010 C
BRANCH  18  19
ATOM     19  C   UNL     1      33.202  16.418  -5.020  1.00  0.00     0.001 C
ATOM     20  G   UNL     1      32.594  16.338  -6.433  1.00  0.00     0.000 C
ENDBRANCH  18  19
ENDBRANCH  15  18
ENDBRANCH   5  15
ENDBRANCH   1   5
BRANCH   2  21
ATOM     21  C   UNL     1      28.173  14.966  -5.741  1.00  0.00     0.085 A
ATOM     22  C   UNL     1      27.205  14.521  -6.631  1.00  0.00     0.100 A
ATOM     23  C   UNL     1      28.323  16.350  -6.000  1.00  0.00     0.120 A
ATOM     24  N   UNL     1      26.798  15.587  -7.406  1.00  0.00    -0.344 N
ATOM     25  N   UNL     1      29.140  17.241  -5.394  1.00  0.00    -0.247 NA
ATOM     26  C   UNL     1      27.481  16.713  -7.036  1.00  0.00     0.156 A
ATOM     27  C   UNL     1      29.089  18.498  -5.888  1.00  0.00     0.063 A
ATOM     28  N   UNL     1      27.371  17.949  -7.566  1.00  0.00    -0.235 NA
ATOM     29  C   UNL     1      28.222  18.818  -6.939  1.00  0.00     0.137 A
ATOM     30  H   UNL     1      26.111  15.560  -8.146  1.00  0.00     0.168 HD
BRANCH  27  31
ATOM     31  C   UNL     1      29.987  19.496  -5.203  1.00  0.00     0.043 C
ATOM     32  C   UNL     1      30.243  20.901  -5.683  1.00  0.00     0.014 C
ATOM     33  C   UNL     1      31.269  19.837  -5.961  1.00  0.00    -0.001 C
BRANCH  33  34
ATOM     34  C   UNL     1      32.583  19.725  -5.246  1.00  0.00     0.004 C
ATOM     35  G   UNL     1      33.400  21.028  -5.333  1.00  0.00     0.000 C
ENDBRANCH  33  34
ENDBRANCH  27  31
ENDBRANCH   2  21
TORSDOF 2
ENDMDL
MODEL 9
REMARK VINA RESULT:      -7.3      2.568      7.230
REMARK SMILES N#C[C@H]1CCN(C(=O)[C@@H]2NC(=O)c3c[nH]c4ncc(nc34)[C@@H]3C[C@H]3CCCC23CC3)C1
REMARK SMILES IDX 10 1 11 2 12 3 9 5 7 6 8 7 6 8 1 9 2 10 3 11 4 12 31 13 5 14
REMARK SMILES IDX 28 15 29 16 30 17 27 18 26 19 13 21 14 22 21 23 15 24 20 25
REMARK SMILES IDX 16 26 19 27 17 28 18 29 22 31 23 32 24 33 25 34
REMARK H PARENT 10 4 15 30
REMARK Flexibility Score:   57.900
ROOT
ATOM      1  N   UNL     1      30.678  14.187  -4.674  1.00  0.00    -0.340 N
ATOM      2  C   UNL     1      29.669  14.386  -5.585  1.00  0.00     0.255 C
ATOM      3  O   UNL     1      29.635  15.337  -6.358  1.00  0.00    -0.269 OA
ATOM      4  H   UNL     1      30.598  13.386  -4.053  1.00  0.00     0.164 HD
ENDROOT
BRANCH   1   5
ATOM      5  C   UNL     1      31.771  15.111  -4.460  1.00  0.00     0.178 C
BRANCH   5   6
ATOM      6  C   UNL     1      31.209  16.440  -3.877  1.00  0.00     0.245 C
ATOM      7  O   UNL     1      30.587  16.471  -2.810  1.00  0.00    -0.272 OA
BRANCH   6   8
ATOM      8  N   UNL     1      31.396  17.598  -4.607  1.00  0.00    -0.340 N
ATOM      9  N   UNL     1      34.368  20.351  -7.026  1.00  0.00    -0.198 NA
ATOM     10  C   UNL     1      33.564  19.984  -6.275  1.00  0.00     0.067 C
ATOM     11  C   UNL     1      32.544  19.524  -5.334  1.00  0.00     0.114 C
ATOM     12  C   UNL     1      31.139  19.523  -5.938  1.00  0.00     0.042 C
ATOM     13  C   UNL     1      32.734  18.064  -4.943  1.00  0.00     0.138 C
ATOM     14  C   UNL     1      30.385  18.547  -5.045  1.00  0.00     0.121 C
ENDBRANCH   6   8
ENDBRANCH   5   6
BRANCH   5  15
ATOM     15  C   UNL     1      32.818  14.456  -3.530  1.00  0.00    -0.000 C
ATOM     16  C   UNL     1      32.331  13.297  -2.664  1.00  0.00     0.010 C
ATOM     17  C   UNL     1      33.207  13.018  -3.842  1.00  0.00     0.010 C
BRANCH  15  18
ATOM     18  C   UNL     1      33.955  15.367  -3.028  1.00  0.00     0.010 C
BRANCH  18  19
ATOM     19  C   UNL     1      35.321  14.673  -2.902  1.00  0.00     0.001 C
ATOM     20  G   UNL     1      36.426  15.574  -2.318  1.00  0.00     0.000 C
ENDBRANCH  18  19
ENDBRANCH  15  18
ENDBRANCH   5  15
ENDBRANCH   1   5
BRANCH   2  21
ATOM     21  C   UNL     1      28.630  13.362  -5.533  1.00  0.00     0.085 A
ATOM     22  C   UNL     1      27.262  13.532  -5.700  1.00  0.00     0.100 A
ATOM     23  C   UNL     1      28.816  11.981  -5.282  1.00  0.00     0.120 A
ATOM     24  N   UNL     1      26.645  12.308  -5.542  1.00  0.00    -0.344 N
ATOM     25  N   UNL     1      29.968  11.308  -5.059  1.00  0.00    -0.247 NA
ATOM     26  C   UNL     1      27.585  11.349  -5.277  1.00  0.00     0.156 A
ATOM     27  C   UNL     1      29.825   9.988  -4.810  1.00  0.00     0.063 A
ATOM     28  N   UNL     1      27.373  10.036  -5.050  1.00  0.00    -0.235 NA
ATOM     29  C   UNL     1      28.557   9.393  -4.814  1.00  0.00     0.137 A
ATOM     30  H   UNL     1      25.653  12.127  -5.598  1.00  0.00     0.168 HD
BRANCH  27  31
ATOM     31  C   UNL     1      31.109   9.233  -4.578  1.00  0.00     0.043 C
ATOM     32  C   UNL     1      31.223   7.929  -3.833  1.00  0.00     0.014 C
ATOM     33  C   UNL     1      31.587   9.206  -3.127  1.00  0.00    -0.001 C
BRANCH  33  34
ATOM     34  C   UNL     1      32.994   9.629  -2.822  1.00  0.00     0.004 C
ATOM     35  G   UNL     1      33.500   9.035  -1.494  1.00  0.00     0.000 C
ENDBRANCH  33  34
ENDBRANCH  27  31
ENDBRANCH   2  21
TORSDOF 2
ENDMDL
