MODEL 1
REMARK VINA RESULT:      -8.3      0.000      0.000
REMARK SMILES N#C[C@@H]1CCN(C(=O)[C@@H]2NC(=O)c3c[nH]c4ncc(nc34)C3(CC3)COC[C@H]3C[C@H]32)C1
REMARK SMILES IDX 13 1 14 2 15 3 16 4 17 5 18 6 19 7 20 8 21 9 11 11 10 12
REMARK SMILES IDX 12 13 9 15 7 16 8 17 6 18 1 19 2 20 3 21 4 22 31 23 5 24
REMARK SMILES IDX 30 25 29 26 28 27 22 29 23 30 24 31 25 32 26 33 27 34
REMARK H PARENT 15 10 10 14
REMARK Flexibility Score:  106.900
ROOT
ATOM      1  C   UNL     1      33.447  14.470  -3.044  1.00  0.00     0.085 A
ATOM      2  C   UNL     1      34.729  14.859  -2.676  1.00  0.00     0.100 A
ATOM      3  N   UNL     1      35.467  13.729  -2.400  1.00  0.00    -0.344 N
ATOM      4  C   UNL     1      34.692  12.619  -2.586  1.00  0.00     0.156 A
ATOM      5  N   UNL     1      35.077  11.333  -2.464  1.00  0.00    -0.235 NA
ATOM      6  C   UNL     1      34.036  10.495  -2.747  1.00  0.00     0.138 A
ATOM      7  C   UNL     1      32.729  10.878  -3.087  1.00  0.00     0.068 A
ATOM      8  N   UNL     1      32.409  12.189  -3.184  1.00  0.00    -0.246 NA
ATOM      9  C   UNL     1      33.427  13.054  -2.943  1.00  0.00     0.120 A
ATOM     10  H   UNL     1      36.441  13.701  -2.134  1.00  0.00     0.168 HD
ENDROOT
BRANCH   1  11
ATOM     11  C   UNL     1      32.366  15.335  -3.495  1.00  0.00     0.255 C
ATOM     12  N   UNL     1      32.341  15.509  -4.855  1.00  0.00    -0.340 N
ATOM     13  O   UNL     1      31.580  15.885  -2.731  1.00  0.00    -0.269 OA
ATOM     14  H   UNL     1      33.018  14.987  -5.401  1.00  0.00     0.164 HD
BRANCH  12  15
ATOM     15  C   UNL     1      31.501  16.478  -5.519  1.00  0.00     0.175 C
BRANCH  15  16
ATOM     16  C   UNL     1      32.409  17.485  -6.282  1.00  0.00     0.245 C
ATOM     17  O   UNL     1      33.105  17.126  -7.238  1.00  0.00    -0.272 OA
BRANCH  16  18
ATOM     18  N   UNL     1      32.421  18.802  -5.864  1.00  0.00    -0.340 N
ATOM     19  N   UNL     1      29.567  21.755  -5.969  1.00  0.00    -0.198 NA
ATOM     20  C   UNL     1      30.490  21.296  -5.438  1.00  0.00     0.067 C
ATOM     21  C   UNL     1      31.664  20.752  -4.739  1.00  0.00     0.114 C
ATOM     22  C   UNL     1      32.962  21.059  -5.489  1.00  0.00     0.042 C
ATOM     23  C   UNL     1      31.640  19.225  -4.711  1.00  0.00     0.138 C
ATOM     24  C   UNL     1      33.077  19.928  -6.503  1.00  0.00     0.121 C
ENDBRANCH  16  18
ENDBRANCH  15  16
BRANCH  15  25
ATOM     25  C   UNL     1      30.506  15.840  -6.469  1.00  0.00     0.027 C
ATOM     26  C   UNL     1      29.141  16.432  -6.743  1.00  0.00     0.013 C
ATOM     27  C   UNL     1      29.236  15.062  -6.107  1.00  0.00     0.021 C
ATOM     28  G   UNL     1      28.715  14.814  -4.722  1.00  0.00     0.000 C
ENDBRANCH  15  25
ENDBRANCH  12  15
ENDBRANCH   1  11
BRANCH   7  29
ATOM     29  C   UNL     1      31.609   9.880  -3.380  1.00  0.00     0.038 C
ATOM     30  C   UNL     1      31.918   8.406  -3.625  1.00  0.00     0.017 C
ATOM     31  C   UNL     1      31.343   8.822  -2.310  1.00  0.00     0.017 C
BRANCH  29  32
ATOM     32  C   UNL     1      30.389  10.483  -4.074  1.00  0.00     0.173 C
BRANCH  32  33
ATOM     33  O   UNL     1      30.180   9.840  -5.336  1.00  0.00    -0.380 OA
BRANCH  33  34
ATOM     34  C   UNL     1      28.854   9.340  -5.509  1.00  0.00     0.164 C
ATOM     35  G   UNL     1      27.916  10.511  -5.514  1.00  0.00     0.000 C
ENDBRANCH  33  34
ENDBRANCH  32  33
ENDBRANCH  29  32
ENDBRANCH   7  29
TORSDOF 2
ENDMDL
MODEL 2
REMARK VINA RESULT:      -8.3      0.901      1.342
REMARK SMILES N#C[C@@H]1CCN(C(=O)[C@@H]2NC(=O)c3c[nH]c4ncc(nc34)C3(CC3)COC[C@H]3C[C@H]32)C1
REMARK SMILES IDX 13 1 14 2 15 3 16 4 17 5 18 6 19 7 20 8 21 9 11 11 10 12
REMARK SMILES IDX 12 13 9 15 7 16 8 17 6 18 1 19 2 20 3 21 4 22 31 23 5 24
REMARK SMILES IDX 30 25 29 26 28 27 22 29 23 30 24 31 25 32 26 33 27 34
REMARK H PARENT 15 10 10 14
REMARK Flexibility Score:  106.900
ROOT
ATOM      1  C   UNL     1      33.286  14.628  -2.977  1.00  0.00     0.085 A
ATOM      2  C   UNL     1      34.518  15.177  -2.649  1.00  0.00     0.100 A
ATOM      3  N   UNL     1      35.400  14.150  -2.394  1.00  0.00    -0.344 N
ATOM      4  C   UNL     1      34.766  12.950  -2.555  1.00  0.00     0.156 A
ATOM      5  N   UNL     1      35.313  11.724  -2.445  1.00  0.00    -0.235 NA
ATOM      6  C   UNL     1      34.378  10.760  -2.696  1.00  0.00     0.138 A
ATOM      7  C   UNL     1      33.023  10.975  -2.996  1.00  0.00     0.068 A
ATOM      8  N   UNL     1      32.538  12.235  -3.084  1.00  0.00    -0.246 NA
ATOM      9  C   UNL     1      33.447  13.222  -2.875  1.00  0.00     0.120 A
ATOM     10  H   UNL     1      36.378  14.246  -2.157  1.00  0.00     0.168 HD
ENDROOT
BRANCH   1  11
ATOM     11  C   UNL     1      32.091  15.349  -3.396  1.00  0.00     0.255 C
ATOM     12  N   UNL     1      31.975  15.462  -4.758  1.00  0.00    -0.340 N
ATOM     13  O   UNL     1      31.290  15.840  -2.608  1.00  0.00    -0.269 OA
ATOM     14  H   UNL     1      32.676  14.996  -5.323  1.00  0.00     0.164 HD
BRANCH  12  15
ATOM     15  C   UNL     1      30.997  16.303  -5.407  1.00  0.00     0.175 C
BRANCH  15  16
ATOM     16  C   UNL     1      31.738  17.470  -6.120  1.00  0.00     0.245 C
ATOM     17  O   UNL     1      32.403  17.278  -7.144  1.00  0.00    -0.272 OA
BRANCH  16  18
ATOM     18  N   UNL     1      31.636  18.737  -5.579  1.00  0.00    -0.340 N
ATOM     19  N   UNL     1      34.435  21.652  -4.839  1.00  0.00    -0.198 NA
ATOM     20  C   UNL     1      33.338  21.385  -5.105  1.00  0.00     0.067 C
ATOM     21  C   UNL     1      31.936  21.089  -5.434  1.00  0.00     0.114 C
ATOM     22  C   UNL     1      31.160  20.591  -4.212  1.00  0.00     0.042 C
ATOM     23  C   UNL     1      31.825  19.919  -6.408  1.00  0.00     0.138 C
ATOM     24  C   UNL     1      31.440  19.093  -4.185  1.00  0.00     0.121 C
ENDBRANCH  16  18
ENDBRANCH  15  16
BRANCH  15  25
ATOM     25  C   UNL     1      30.132  15.544  -6.395  1.00  0.00     0.027 C
ATOM     26  C   UNL     1      28.822  16.087  -6.921  1.00  0.00     0.013 C
ATOM     27  C   UNL     1      28.818  14.807  -6.113  1.00  0.00     0.021 C
ATOM     28  G   UNL     1      28.114  14.729  -4.791  1.00  0.00     0.000 C
ENDBRANCH  15  25
ENDBRANCH  12  15
ENDBRANCH   1  11
BRANCH   7  29
ATOM     29  C   UNL     1      32.029   9.843  -3.255  1.00  0.00     0.038 C
ATOM     30  C   UNL     1      32.447   8.383  -3.099  1.00  0.00     0.017 C
ATOM     31  C   UNL     1      31.607   9.018  -2.039  1.00  0.00     0.017 C
BRANCH  29  32
ATOM     32  C   UNL     1      30.943  10.174  -4.276  1.00  0.00     0.173 C
BRANCH  32  33
ATOM     33  O   UNL     1      30.417   8.966  -4.836  1.00  0.00    -0.380 OA
BRANCH  33  34
ATOM     34  C   UNL     1      29.518   9.185  -5.922  1.00  0.00     0.164 C
ATOM     35  G   UNL     1      28.238   9.731  -5.361  1.00  0.00     0.000 C
ENDBRANCH  33  34
ENDBRANCH  32  33
ENDBRANCH  29  32
ENDBRANCH   7  29
TORSDOF 2
ENDMDL
MODEL 3
REMARK VINA RESULT:      -8.2      1.965      4.126
REMARK SMILES N#C[C@@H]1CCN(C(=O)[C@@H]2NC(=O)c3c[nH]c4ncc(nc34)C3(CC3)COC[C@H]3C[C@H]32)C1
REMARK SMILES IDX 13 1 14 2 15 3 16 4 17 5 18 6 19 7 20 8 21 9 11 11 10 12
REMARK SMILES IDX 12 13 9 15 7 16 8 17 6 18 1 19 2 20 3 21 4 22 31 23 5 24
REMARK SMILES IDX 30 25 29 26 28 27 22 29 23 30 24 31 25 32 26 33 27 34
REMARK H PARENT 15 10 10 14
REMARK Flexibility Score:  106.900
ROOT
ATOM      1  C   UNL     1      33.292  14.476  -3.002  1.00  0.00     0.085 A
ATOM      2  C   UNL     1      34.569  14.892  -2.649  1.00  0.00     0.100 A
ATOM      3  N   UNL     1      35.344  13.776  -2.419  1.00  0.00    -0.344 N
ATOM      4  C   UNL     1      34.596  12.650  -2.619  1.00  0.00     0.156 A
ATOM      5  N   UNL     1      35.020  11.373  -2.541  1.00  0.00    -0.235 NA
ATOM      6  C   UNL     1      33.996  10.513  -2.826  1.00  0.00     0.138 A
ATOM      7  C   UNL     1      32.672  10.868  -3.129  1.00  0.00     0.068 A
ATOM      8  N   UNL     1      32.314  12.172  -3.183  1.00  0.00    -0.246 NA
ATOM      9  C   UNL     1      33.313  13.059  -2.939  1.00  0.00     0.120 A
ATOM     10  H   UNL     1      36.324  13.768  -2.173  1.00  0.00     0.168 HD
ENDROOT
BRANCH   1  11
ATOM     11  C   UNL     1      32.178  15.323  -3.407  1.00  0.00     0.255 C
ATOM     12  N   UNL     1      31.962  15.325  -4.762  1.00  0.00    -0.340 N
ATOM     13  O   UNL     1      31.523  15.997  -2.619  1.00  0.00    -0.269 OA
ATOM     14  H   UNL     1      32.541  14.710  -5.324  1.00  0.00     0.164 HD
BRANCH  12  15
ATOM     15  C   UNL     1      31.059  16.236  -5.423  1.00  0.00     0.175 C
BRANCH  15  16
ATOM     16  C   UNL     1      29.649  16.093  -4.782  1.00  0.00     0.245 C
ATOM     17  O   UNL     1      29.215  16.937  -3.989  1.00  0.00    -0.272 OA
BRANCH  16  18
ATOM     18  N   UNL     1      28.884  14.994  -5.120  1.00  0.00    -0.340 N
ATOM     19  N   UNL     1      24.855  14.245  -4.841  1.00  0.00    -0.198 NA
ATOM     20  C   UNL     1      25.855  14.058  -5.398  1.00  0.00     0.067 C
ATOM     21  C   UNL     1      27.103  13.788  -6.127  1.00  0.00     0.114 C
ATOM     22  C   UNL     1      28.010  12.824  -5.359  1.00  0.00     0.042 C
ATOM     23  C   UNL     1      27.963  15.043  -6.246  1.00  0.00     0.138 C
ATOM     24  C   UNL     1      28.791  13.728  -4.414  1.00  0.00     0.121 C
ENDBRANCH  16  18
ENDBRANCH  15  16
BRANCH  15  25
ATOM     25  C   UNL     1      31.526  17.678  -5.357  1.00  0.00     0.027 C
ATOM     26  C   UNL     1      31.220  18.687  -6.442  1.00  0.00     0.013 C
ATOM     27  C   UNL     1      32.662  18.329  -6.153  1.00  0.00     0.021 C
ATOM     28  G   UNL     1      33.516  17.657  -7.187  1.00  0.00     0.000 C
ENDBRANCH  15  25
ENDBRANCH  12  15
ENDBRANCH   1  11
BRANCH   7  29
ATOM     29  C   UNL     1      31.574   9.848  -3.426  1.00  0.00     0.038 C
ATOM     30  C   UNL     1      31.907   8.368  -3.600  1.00  0.00     0.017 C
ATOM     31  C   UNL     1      31.276   8.829  -2.326  1.00  0.00     0.017 C
BRANCH  29  32
ATOM     32  C   UNL     1      30.377  10.409  -4.191  1.00  0.00     0.173 C
BRANCH  32  33
ATOM     33  O   UNL     1      30.311   9.817  -5.493  1.00  0.00    -0.380 OA
BRANCH  33  34
ATOM     34  C   UNL     1      29.027   9.279  -5.809  1.00  0.00     0.164 C
ATOM     35  G   UNL     1      29.165   7.790  -5.928  1.00  0.00     0.000 C
ENDBRANCH  33  34
ENDBRANCH  32  33
ENDBRANCH  29  32
ENDBRANCH   7  29
TORSDOF 2
ENDMDL
MODEL 4
REMARK VINA RESULT:      -8.0      2.241      4.280
REMARK SMILES N#C[C@@H]1CCN(C(=O)[C@@H]2NC(=O)c3c[nH]c4ncc(nc34)C3(CC3)COC[C@H]3C[C@H]32)C1
REMARK SMILES IDX 13 1 14 2 15 3 16 4 17 5 18 6 19 7 20 8 21 9 11 11 10 12
REMARK SMILES IDX 12 13 9 15 7 16 8 17 6 18 1 19 2 20 3 21 4 22 31 23 5 24
REMARK SMILES IDX 30 25 29 26 28 27 22 29 23 30 24 31 25 32 26 33 27 34
REMARK H PARENT 15 10 10 14
REMARK Flexibility Score:  106.900
ROOT
ATOM      1  C   UNL     1      29.117  11.555  -5.001  1.00  0.00     0.085 A
ATOM      2  C   UNL     1      28.136  10.824  -5.659  1.00  0.00     0.100 A
ATOM      3  N   UNL     1      28.463   9.489  -5.587  1.00  0.00    -0.344 N
ATOM      4  C   UNL     1      29.630   9.339  -4.892  1.00  0.00     0.156 A
ATOM      5  N   UNL     1      30.238   8.180  -4.571  1.00  0.00    -0.235 NA
ATOM      6  C   UNL     1      31.376   8.422  -3.854  1.00  0.00     0.138 A
ATOM      7  C   UNL     1      31.889   9.683  -3.508  1.00  0.00     0.068 A
ATOM      8  N   UNL     1      31.229  10.807  -3.871  1.00  0.00    -0.246 NA
ATOM      9  C   UNL     1      30.075  10.606  -4.556  1.00  0.00     0.120 A
ATOM     10  H   UNL     1      27.920   8.719  -5.953  1.00  0.00     0.168 HD
ENDROOT
BRANCH   1  11
ATOM     11  C   UNL     1      29.127  12.992  -4.767  1.00  0.00     0.255 C
ATOM     12  N   UNL     1      29.489  13.720  -5.872  1.00  0.00    -0.340 N
ATOM     13  O   UNL     1      28.875  13.499  -3.679  1.00  0.00    -0.269 OA
ATOM     14  H   UNL     1      29.650  13.207  -6.732  1.00  0.00     0.164 HD
BRANCH  12  15
ATOM     15  C   UNL     1      29.772  15.135  -5.836  1.00  0.00     0.175 C
BRANCH  15  16
ATOM     16  C   UNL     1      31.312  15.338  -5.921  1.00  0.00     0.245 C
ATOM     17  O   UNL     1      32.073  14.392  -6.156  1.00  0.00    -0.272 OA
BRANCH  16  18
ATOM     18  N   UNL     1      31.817  16.609  -5.725  1.00  0.00    -0.340 N
ATOM     19  N   UNL     1      29.991  20.247  -5.173  1.00  0.00    -0.198 NA
ATOM     20  C   UNL     1      30.903  19.561  -4.964  1.00  0.00     0.067 C
ATOM     21  C   UNL     1      32.080  18.726  -4.683  1.00  0.00     0.114 C
ATOM     22  C   UNL     1      33.008  18.629  -5.896  1.00  0.00     0.042 C
ATOM     23  C   UNL     1      31.688  17.272  -4.436  1.00  0.00     0.138 C
ATOM     24  C   UNL     1      32.426  17.482  -6.713  1.00  0.00     0.121 C
ENDBRANCH  16  18
ENDBRANCH  15  16
BRANCH  15  25
ATOM     25  C   UNL     1      29.076  15.902  -6.944  1.00  0.00     0.027 C
ATOM     26  C   UNL     1      28.505  17.288  -6.746  1.00  0.00     0.013 C
ATOM     27  C   UNL     1      27.573  16.151  -7.107  1.00  0.00     0.021 C
ATOM     28  G   UNL     1      26.495  15.705  -6.163  1.00  0.00     0.000 C
ENDBRANCH  15  25
ENDBRANCH  12  15
ENDBRANCH   1  11
BRANCH   7  29
ATOM     29  C   UNL     1      33.178   9.877  -2.711  1.00  0.00     0.038 C
ATOM     30  C   UNL     1      33.357   9.226  -1.341  1.00  0.00     0.017 C
ATOM     31  C   UNL     1      34.056   8.639  -2.524  1.00  0.00     0.017 C
BRANCH  29  32
ATOM     32  C   UNL     1      33.895  11.199  -2.977  1.00  0.00     0.173 C
BRANCH  32  33
ATOM     33  O   UNL     1      34.876  11.433  -1.961  1.00  0.00    -0.380 OA
BRANCH  33  34
ATOM     34  C   UNL     1      35.462  12.733  -2.024  1.00  0.00     0.164 C
ATOM     35  G   UNL     1      34.494  13.644  -2.720  1.00  0.00     0.000 C
ENDBRANCH  33  34
ENDBRANCH  32  33
ENDBRANCH  29  32
ENDBRANCH   7  29
TORSDOF 2
ENDMDL
MODEL 5
REMARK VINA RESULT:      -8.0      2.153      4.049
REMARK SMILES N#C[C@@H]1CCN(C(=O)[C@@H]2NC(=O)c3c[nH]c4ncc(nc34)C3(CC3)COC[C@H]3C[C@H]32)C1
REMARK SMILES IDX 13 1 14 2 15 3 16 4 17 5 18 6 19 7 20 8 21 9 11 11 10 12
REMARK SMILES IDX 12 13 9 15 7 16 8 17 6 18 1 19 2 20 3 21 4 22 31 23 5 24
REMARK SMILES IDX 30 25 29 26 28 27 22 29 23 30 24 31 25 32 26 33 27 34
REMARK H PARENT 15 10 10 14
REMARK Flexibility Score:  106.900
ROOT
ATOM      1  C   UNL     1      33.536  14.597  -3.387  1.00  0.00     0.085 A
ATOM      2  C   UNL     1      34.744  15.072  -2.893  1.00  0.00     0.100 A
ATOM      3  N   UNL     1      35.457  14.009  -2.385  1.00  0.00    -0.344 N
ATOM      4  C   UNL     1      34.739  12.857  -2.544  1.00  0.00     0.156 A
ATOM      5  N   UNL     1      35.128  11.608  -2.219  1.00  0.00    -0.235 NA
ATOM      6  C   UNL     1      34.155  10.706  -2.545  1.00  0.00     0.138 A
ATOM      7  C   UNL     1      32.902  11.000  -3.107  1.00  0.00     0.068 A
ATOM      8  N   UNL     1      32.574  12.280  -3.401  1.00  0.00    -0.246 NA
ATOM      9  C   UNL     1      33.530  13.202  -3.124  1.00  0.00     0.120 A
ATOM     10  H   UNL     1      36.383  14.046  -1.983  1.00  0.00     0.168 HD
ENDROOT
BRANCH   1  11
ATOM     11  C   UNL     1      32.514  15.366  -4.084  1.00  0.00     0.255 C
ATOM     12  N   UNL     1      31.241  14.909  -3.855  1.00  0.00    -0.340 N
ATOM     13  O   UNL     1      32.769  16.304  -4.832  1.00  0.00    -0.269 OA
ATOM     14  H   UNL     1      31.134  14.145  -3.198  1.00  0.00     0.164 HD
BRANCH  12  15
ATOM     15  C   UNL     1      30.085  15.370  -4.589  1.00  0.00     0.175 C
BRANCH  15  16
ATOM     16  C   UNL     1      28.972  14.288  -4.496  1.00  0.00     0.245 C
ATOM     17  O   UNL     1      28.918  13.501  -3.543  1.00  0.00    -0.272 OA
BRANCH  16  18
ATOM     18  N   UNL     1      28.037  14.222  -5.510  1.00  0.00    -0.340 N
ATOM     19  N   UNL     1      26.016  17.131  -7.590  1.00  0.00    -0.198 NA
ATOM     20  C   UNL     1      26.478  16.068  -7.582  1.00  0.00     0.067 C
ATOM     21  C   UNL     1      27.043  14.711  -7.611  1.00  0.00     0.114 C
ATOM     22  C   UNL     1      26.168  13.716  -6.845  1.00  0.00     0.042 C
ATOM     23  C   UNL     1      28.372  14.642  -6.862  1.00  0.00     0.138 C
ATOM     24  C   UNL     1      26.637  13.850  -5.402  1.00  0.00     0.121 C
ENDBRANCH  16  18
ENDBRANCH  15  16
BRANCH  15  25
ATOM     25  C   UNL     1      29.567  16.705  -4.091  1.00  0.00     0.027 C
ATOM     26  C   UNL     1      28.273  17.315  -4.582  1.00  0.00     0.013 C
ATOM     27  C   UNL     1      29.574  18.046  -4.833  1.00  0.00     0.021 C
ATOM     28  G   UNL     1      30.072  18.282  -6.228  1.00  0.00     0.000 C
ENDBRANCH  15  25
ENDBRANCH  12  15
ENDBRANCH   1  11
BRANCH   7  29
ATOM     29  C   UNL     1      31.856   9.936  -3.434  1.00  0.00     0.038 C
ATOM     30  C   UNL     1      32.195   8.450  -3.341  1.00  0.00     0.017 C
ATOM     31  C   UNL     1      31.369   9.078  -2.266  1.00  0.00     0.017 C
BRANCH  29  32
ATOM     32  C   UNL     1      30.807  10.371  -4.456  1.00  0.00     0.173 C
BRANCH  32  33
ATOM     33  O   UNL     1      30.542   9.298  -5.367  1.00  0.00    -0.380 OA
BRANCH  33  34
ATOM     34  C   UNL     1      29.150   9.060  -5.577  1.00  0.00     0.164 C
ATOM     35  G   UNL     1      28.981   8.484  -6.951  1.00  0.00     0.000 C
ENDBRANCH  33  34
ENDBRANCH  32  33
ENDBRANCH  29  32
ENDBRANCH   7  29
TORSDOF 2
ENDMDL
MODEL 6
REMARK VINA RESULT:      -8.0      2.400      4.297
REMARK SMILES N#C[C@@H]1CCN(C(=O)[C@@H]2NC(=O)c3c[nH]c4ncc(nc34)C3(CC3)COC[C@H]3C[C@H]32)C1
REMARK SMILES IDX 13 1 14 2 15 3 16 4 17 5 18 6 19 7 20 8 21 9 11 11 10 12
REMARK SMILES IDX 12 13 9 15 7 16 8 17 6 18 1 19 2 20 3 21 4 22 31 23 5 24
REMARK SMILES IDX 30 25 29 26 28 27 22 29 23 30 24 31 25 32 26 33 27 34
REMARK H PARENT 15 10 10 14
REMARK Flexibility Score:  106.900
ROOT
ATOM      1  C   UNL     1      32.881  12.438  -3.876  1.00  0.00     0.085 A
ATOM      2  C   UNL     1      33.938  12.535  -2.980  1.00  0.00     0.100 A
ATOM      3  N   UNL     1      34.113  11.309  -2.377  1.00  0.00    -0.344 N
ATOM      4  C   UNL     1      33.196  10.422  -2.867  1.00  0.00     0.156 A
ATOM      5  N   UNL     1      33.089   9.115  -2.557  1.00  0.00    -0.235 NA
ATOM      6  C   UNL     1      32.068   8.540  -3.260  1.00  0.00     0.138 A
ATOM      7  C   UNL     1      31.209   9.191  -4.161  1.00  0.00     0.068 A
ATOM      8  N   UNL     1      31.369  10.510  -4.419  1.00  0.00    -0.246 NA
ATOM      9  C   UNL     1      32.397  11.109  -3.765  1.00  0.00     0.120 A
ATOM     10  H   UNL     1      34.824  11.071  -1.700  1.00  0.00     0.168 HD
ENDROOT
BRANCH   1  11
ATOM     11  C   UNL     1      32.407  13.474  -4.784  1.00  0.00     0.255 C
ATOM     12  N   UNL     1      32.433  14.731  -4.235  1.00  0.00    -0.340 N
ATOM     13  O   UNL     1      31.991  13.240  -5.914  1.00  0.00    -0.269 OA
ATOM     14  H   UNL     1      32.823  14.821  -3.303  1.00  0.00     0.164 HD
BRANCH  12  15
ATOM     15  C   UNL     1      31.825  15.884  -4.856  1.00  0.00     0.175 C
BRANCH  15  16
ATOM     16  C   UNL     1      30.421  16.107  -4.227  1.00  0.00     0.245 C
ATOM     17  O   UNL     1      30.279  16.256  -3.007  1.00  0.00    -0.272 OA
BRANCH  16  18
ATOM     18  N   UNL     1      29.324  16.133  -5.066  1.00  0.00    -0.340 N
ATOM     19  N   UNL     1      25.536  14.584  -4.704  1.00  0.00    -0.198 NA
ATOM     20  C   UNL     1      26.225  15.411  -5.136  1.00  0.00     0.067 C
ATOM     21  C   UNL     1      27.063  16.474  -5.709  1.00  0.00     0.114 C
ATOM     22  C   UNL     1      27.871  15.973  -6.909  1.00  0.00     0.042 C
ATOM     23  C   UNL     1      28.147  16.921  -4.731  1.00  0.00     0.138 C
ATOM     24  C   UNL     1      29.120  15.365  -6.282  1.00  0.00     0.121 C
ENDBRANCH  16  18
ENDBRANCH  15  16
BRANCH  15  25
ATOM     25  C   UNL     1      32.669  17.137  -4.722  1.00  0.00     0.027 C
ATOM     26  C   UNL     1      32.235  18.479  -5.269  1.00  0.00     0.013 C
ATOM     27  C   UNL     1      33.490  17.832  -5.813  1.00  0.00     0.021 C
ATOM     28  G   UNL     1      33.585  17.414  -7.251  1.00  0.00     0.000 C
ENDBRANCH  15  25
ENDBRANCH  12  15
ENDBRANCH   1  11
BRANCH   7  29
ATOM     29  C   UNL     1      30.077   8.484  -4.904  1.00  0.00     0.038 C
ATOM     30  C   UNL     1      28.700   9.131  -5.032  1.00  0.00     0.017 C
ATOM     31  C   UNL     1      29.616   9.127  -6.212  1.00  0.00     0.017 C
BRANCH  29  32
ATOM     32  C   UNL     1      30.155   6.959  -4.874  1.00  0.00     0.173 C
BRANCH  32  33
ATOM     33  O   UNL     1      28.903   6.400  -5.287  1.00  0.00    -0.380 OA
BRANCH  33  34
ATOM     34  C   UNL     1      29.036   5.175  -6.008  1.00  0.00     0.164 C
ATOM     35  G   UNL     1      28.915   5.484  -7.471  1.00  0.00     0.000 C
ENDBRANCH  33  34
ENDBRANCH  32  33
ENDBRANCH  29  32
ENDBRANCH   7  29
TORSDOF 2
ENDMDL
MODEL 7
REMARK VINA RESULT:      -8.0      1.200      1.640
REMARK SMILES N#C[C@@H]1CCN(C(=O)[C@@H]2NC(=O)c3c[nH]c4ncc(nc34)C3(CC3)COC[C@H]3C[C@H]32)C1
REMARK SMILES IDX 13 1 14 2 15 3 16 4 17 5 18 6 19 7 20 8 21 9 11 11 10 12
REMARK SMILES IDX 12 13 9 15 7 16 8 17 6 18 1 19 2 20 3 21 4 22 31 23 5 24
REMARK SMILES IDX 30 25 29 26 28 27 22 29 23 30 24 31 25 32 26 33 27 34
REMARK H PARENT 15 10 10 14
REMARK Flexibility Score:  106.900
ROOT
ATOM      1  C   UNL     1      33.165  14.622  -3.054  1.00  0.00     0.085 A
ATOM      2  C   UNL     1      34.409  15.095  -2.657  1.00  0.00     0.100 A
ATOM      3  N   UNL     1      35.227  14.016  -2.408  1.00  0.00    -0.344 N
ATOM      4  C   UNL     1      34.541  12.856  -2.639  1.00  0.00     0.156 A
ATOM      5  N   UNL     1      35.022  11.600  -2.555  1.00  0.00    -0.235 NA
ATOM      6  C   UNL     1      34.051  10.695  -2.878  1.00  0.00     0.138 A
ATOM      7  C   UNL     1      32.722  10.990  -3.223  1.00  0.00     0.068 A
ATOM      8  N   UNL     1      32.304  12.276  -3.281  1.00  0.00    -0.246 NA
ATOM      9  C   UNL     1      33.251  13.206  -2.999  1.00  0.00     0.120 A
ATOM     10  H   UNL     1      36.198  14.052  -2.130  1.00  0.00     0.168 HD
ENDROOT
BRANCH   1  11
ATOM     11  C   UNL     1      32.026  15.418  -3.491  1.00  0.00     0.255 C
ATOM     12  N   UNL     1      31.305  14.828  -4.498  1.00  0.00    -0.340 N
ATOM     13  O   UNL     1      31.761  16.523  -3.031  1.00  0.00    -0.269 OA
ATOM     14  H   UNL     1      31.590  13.899  -4.788  1.00  0.00     0.164 HD
BRANCH  12  15
ATOM     15  C   UNL     1      30.265  15.505  -5.235  1.00  0.00     0.175 C
BRANCH  15  16
ATOM     16  C   UNL     1      30.922  16.562  -6.168  1.00  0.00     0.245 C
ATOM     17  O   UNL     1      31.866  16.266  -6.909  1.00  0.00    -0.272 OA
BRANCH  16  18
ATOM     18  N   UNL     1      30.425  17.851  -6.149  1.00  0.00    -0.340 N
ATOM     19  N   UNL     1      31.048  21.011  -3.599  1.00  0.00    -0.198 NA
ATOM     20  C   UNL     1      30.805  20.645  -4.672  1.00  0.00     0.067 C
ATOM     21  C   UNL     1      30.486  20.223  -6.044  1.00  0.00     0.114 C
ATOM     22  C   UNL     1      29.036  19.748  -6.168  1.00  0.00     0.042 C
ATOM     23  C   UNL     1      31.285  18.986  -6.449  1.00  0.00     0.138 C
ATOM     24  C   UNL     1      29.093  18.281  -5.761  1.00  0.00     0.121 C
ENDBRANCH  16  18
ENDBRANCH  15  16
BRANCH  15  25
ATOM     25  C   UNL     1      29.401  14.554  -6.041  1.00  0.00     0.027 C
ATOM     26  C   UNL     1      28.382  15.031  -7.052  1.00  0.00     0.013 C
ATOM     27  C   UNL     1      27.912  14.248  -5.844  1.00  0.00     0.021 C
ATOM     28  G   UNL     1      27.010  14.871  -4.821  1.00  0.00     0.000 C
ENDBRANCH  15  25
ENDBRANCH  12  15
ENDBRANCH   1  11
BRANCH   7  29
ATOM     29  C   UNL     1      31.684   9.921  -3.563  1.00  0.00     0.038 C
ATOM     30  C   UNL     1      32.039   8.437  -3.498  1.00  0.00     0.017 C
ATOM     31  C   UNL     1      31.213   9.038  -2.408  1.00  0.00     0.017 C
BRANCH  29  32
ATOM     32  C   UNL     1      30.625  10.363  -4.571  1.00  0.00     0.173 C
BRANCH  32  33
ATOM     33  O   UNL     1      30.406   9.325  -5.532  1.00  0.00    -0.380 OA
BRANCH  33  34
ATOM     34  C   UNL     1      29.033   8.959  -5.672  1.00  0.00     0.164 C
ATOM     35  G   UNL     1      28.852   8.349  -7.030  1.00  0.00     0.000 C
ENDBRANCH  33  34
ENDBRANCH  32  33
ENDBRANCH  29  32
ENDBRANCH   7  29
TORSDOF 2
ENDMDL
MODEL 8
REMARK VINA RESULT:      -7.9      2.424      4.417
REMARK SMILES N#C[C@@H]1CCN(C(=O)[C@@H]2NC(=O)c3c[nH]c4ncc(nc34)C3(CC3)COC[C@H]3C[C@H]32)C1
REMARK SMILES IDX 13 1 14 2 15 3 16 4 17 5 18 6 19 7 20 8 21 9 11 11 10 12
REMARK SMILES IDX 12 13 9 15 7 16 8 17 6 18 1 19 2 20 3 21 4 22 31 23 5 24
REMARK SMILES IDX 30 25 29 26 28 27 22 29 23 30 24 31 25 32 26 33 27 34
REMARK H PARENT 15 10 10 14
REMARK Flexibility Score:  106.900
ROOT
ATOM      1  C   UNL     1      33.048  14.711  -3.865  1.00  0.00     0.085 A
ATOM      2  C   UNL     1      33.950  15.675  -3.433  1.00  0.00     0.100 A
ATOM      3  N   UNL     1      34.891  15.066  -2.634  1.00  0.00    -0.344 N
ATOM      4  C   UNL     1      34.621  13.729  -2.544  1.00  0.00     0.156 A
ATOM      5  N   UNL     1      35.348  12.799  -1.895  1.00  0.00    -0.235 NA
ATOM      6  C   UNL     1      34.782  11.564  -2.042  1.00  0.00     0.138 A
ATOM      7  C   UNL     1      33.595  11.270  -2.735  1.00  0.00     0.068 A
ATOM      8  N   UNL     1      32.911  12.257  -3.358  1.00  0.00    -0.246 NA
ATOM      9  C   UNL     1      33.462  13.494  -3.263  1.00  0.00     0.120 A
ATOM     10  H   UNL     1      35.687  15.513  -2.199  1.00  0.00     0.168 HD
ENDROOT
BRANCH   1  11
ATOM     11  C   UNL     1      31.941  14.903  -4.792  1.00  0.00     0.255 C
ATOM     12  N   UNL     1      30.887  15.590  -4.245  1.00  0.00    -0.340 N
ATOM     13  O   UNL     1      31.935  14.460  -5.935  1.00  0.00    -0.269 OA
ATOM     14  H   UNL     1      31.003  15.939  -3.299  1.00  0.00     0.164 HD
BRANCH  12  15
ATOM     15  C   UNL     1      29.602  15.724  -4.890  1.00  0.00     0.175 C
BRANCH  15  16
ATOM     16  C   UNL     1      28.712  14.516  -4.483  1.00  0.00     0.245 C
ATOM     17  O   UNL     1      29.056  13.737  -3.586  1.00  0.00    -0.272 OA
BRANCH  16  18
ATOM     18  N   UNL     1      27.518  14.328  -5.151  1.00  0.00    -0.340 N
ATOM     19  N   UNL     1      25.732  16.372  -8.235  1.00  0.00    -0.198 NA
ATOM     20  C   UNL     1      25.893  15.364  -7.685  1.00  0.00     0.067 C
ATOM     21  C   UNL     1      26.064  14.068  -7.011  1.00  0.00     0.114 C
ATOM     22  C   UNL     1      25.258  13.995  -5.712  1.00  0.00     0.042 C
ATOM     23  C   UNL     1      27.500  13.871  -6.533  1.00  0.00     0.138 C
ATOM     24  C   UNL     1      26.179  14.624  -4.673  1.00  0.00     0.121 C
ENDBRANCH  16  18
ENDBRANCH  15  16
BRANCH  15  25
ATOM     25  C   UNL     1      28.908  17.030  -4.551  1.00  0.00     0.027 C
ATOM     26  C   UNL     1      27.984  17.739  -5.516  1.00  0.00     0.013 C
ATOM     27  C   UNL     1      29.253  18.432  -5.066  1.00  0.00     0.021 C
ATOM     28  G   UNL     1      30.337  18.773  -6.045  1.00  0.00     0.000 C
ENDBRANCH  15  25
ENDBRANCH  12  15
ENDBRANCH   1  11
BRANCH   7  29
ATOM     29  C   UNL     1      33.014   9.862  -2.848  1.00  0.00     0.038 C
ATOM     30  C   UNL     1      33.839   8.640  -2.450  1.00  0.00     0.017 C
ATOM     31  C   UNL     1      32.761   9.122  -1.534  1.00  0.00     0.017 C
BRANCH  29  32
ATOM     32  C   UNL     1      31.967   9.695  -3.948  1.00  0.00     0.173 C
BRANCH  32  33
ATOM     33  O   UNL     1      30.654   9.816  -3.390  1.00  0.00    -0.380 OA
BRANCH  33  34
ATOM     34  C   UNL     1      29.677  10.272  -4.327  1.00  0.00     0.164 C
ATOM     35  G   UNL     1      29.640   9.299  -5.468  1.00  0.00     0.000 C
ENDBRANCH  33  34
ENDBRANCH  32  33
ENDBRANCH  29  32
ENDBRANCH   7  29
TORSDOF 2
ENDMDL
MODEL 9
REMARK VINA RESULT:      -7.9      2.359      4.717
REMARK SMILES N#C[C@@H]1CCN(C(=O)[C@@H]2NC(=O)c3c[nH]c4ncc(nc34)C3(CC3)COC[C@H]3C[C@H]32)C1
REMARK SMILES IDX 13 1 14 2 15 3 16 4 17 5 18 6 19 7 20 8 21 9 11 11 10 12
REMARK SMILES IDX 12 13 9 15 7 16 8 17 6 18 1 19 2 20 3 21 4 22 31 23 5 24
REMARK SMILES IDX 30 25 29 26 28 27 22 29 23 30 24 31 25 32 26 33 27 34
REMARK H PARENT 15 10 10 14
REMARK Flexibility Score:  106.900
ROOT
ATOM      1  C   UNL     1      28.588  10.460  -5.344  1.00  0.00     0.085 A
ATOM      2  C   UNL     1      27.731   9.492  -5.849  1.00  0.00     0.100 A
ATOM      3  N   UNL     1      28.269   8.252  -5.588  1.00  0.00    -0.344 N
ATOM      4  C   UNL     1      29.454   8.397  -4.921  1.00  0.00     0.156 A
ATOM      5  N   UNL     1      30.244   7.413  -4.451  1.00  0.00    -0.235 NA
ATOM      6  C   UNL     1      31.336   7.938  -3.819  1.00  0.00     0.138 A
ATOM      7  C   UNL     1      31.643   9.303  -3.687  1.00  0.00     0.068 A
ATOM      8  N   UNL     1      30.806  10.239  -4.191  1.00  0.00    -0.246 NA
ATOM      9  C   UNL     1      29.692   9.755  -4.796  1.00  0.00     0.120 A
ATOM     10  H   UNL     1      27.854   7.359  -5.814  1.00  0.00     0.168 HD
ENDROOT
BRANCH   1  11
ATOM     11  C   UNL     1      28.370  11.901  -5.331  1.00  0.00     0.255 C
ATOM     12  N   UNL     1      29.453  12.619  -5.770  1.00  0.00    -0.340 N
ATOM     13  O   UNL     1      27.334  12.421  -4.930  1.00  0.00    -0.269 OA
ATOM     14  H   UNL     1      30.252  12.092  -6.107  1.00  0.00     0.164 HD
BRANCH  12  15
ATOM     15  C   UNL     1      29.557  14.054  -5.655  1.00  0.00     0.175 C
BRANCH  15  16
ATOM     16  C   UNL     1      31.061  14.449  -5.686  1.00  0.00     0.245 C
ATOM     17  O   UNL     1      31.929  13.647  -6.051  1.00  0.00    -0.272 OA
BRANCH  16  18
ATOM     18  N   UNL     1      31.411  15.727  -5.294  1.00  0.00    -0.340 N
ATOM     19  N   UNL     1      29.287  19.240  -5.130  1.00  0.00    -0.198 NA
ATOM     20  C   UNL     1      30.140  18.583  -4.697  1.00  0.00     0.067 C
ATOM     21  C   UNL     1      31.235  17.786  -4.124  1.00  0.00     0.114 C
ATOM     22  C   UNL     1      32.476  17.805  -5.018  1.00  0.00     0.042 C
ATOM     23  C   UNL     1      30.877  16.303  -4.069  1.00  0.00     0.138 C
ATOM     24  C   UNL     1      32.224  16.685  -6.021  1.00  0.00     0.121 C
ENDBRANCH  16  18
ENDBRANCH  15  16
BRANCH  15  25
ATOM     25  C   UNL     1      28.795  14.787  -6.743  1.00  0.00     0.027 C
ATOM     26  C   UNL     1      29.044  16.241  -7.078  1.00  0.00     0.013 C
ATOM     27  C   UNL     1      27.681  15.824  -6.566  1.00  0.00     0.021 C
ATOM     28  G   UNL     1      27.153  16.342  -5.261  1.00  0.00     0.000 C
ENDBRANCH  15  25
ENDBRANCH  12  15
ENDBRANCH   1  11
BRANCH   7  29
ATOM     29  C   UNL     1      32.893   9.818  -2.974  1.00  0.00     0.038 C
ATOM     30  C   UNL     1      33.136   9.511  -1.499  1.00  0.00     0.017 C
ATOM     31  C   UNL     1      33.910   8.765  -2.536  1.00  0.00     0.017 C
BRANCH  29  32
ATOM     32  C   UNL     1      33.449  11.124  -3.538  1.00  0.00     0.173 C
BRANCH  32  33
ATOM     33  O   UNL     1      32.898  12.236  -2.824  1.00  0.00    -0.380 OA
BRANCH  33  34
ATOM     34  C   UNL     1      33.860  13.240  -2.502  1.00  0.00     0.164 C
ATOM     35  G   UNL     1      35.185  12.566  -2.304  1.00  0.00     0.000 C
ENDBRANCH  33  34
ENDBRANCH  32  33
ENDBRANCH  29  32
ENDBRANCH   7  29
TORSDOF 2
ENDMDL
