MODEL 1
REMARK VINA RESULT:      -8.9      0.000      0.000
REMARK SMILES NC(=O)c1cnc2c3c1[nH]c1cc(ccc13)-c1ccc(nn1)N1CCS(=O)(=O)C[C@@H]1CSC[C@@H]1C[C@H]1[C@H](C(F)(F)F)N2
REMARK SMILES IDX 4 1 5 2 6 3 7 4 8 5 9 6 10 7 11 8 12 9 13 10 14 11 15 12
REMARK SMILES IDX 16 13 2 15 1 16 3 17 42 20 37 22 36 23 35 24 34 25 38 27
REMARK SMILES IDX 39 28 40 29 41 30 17 31 18 32 22 33 19 34 21 35 20 36 23 37
REMARK SMILES IDX 24 38 30 39 25 40 29 41 26 42 27 43 28 44 31 45 32 46 33 47
REMARK H PARENT 10 14 1 18 1 19 42 21
REMARK Flexibility Score:   57.900
ROOT
ATOM      1  C   UNL     1      31.224   9.304  -3.713  1.00  0.00     0.082 A
ATOM      2  C   UNL     1      30.986   8.113  -4.390  1.00  0.00     0.129 A
ATOM      3  N   UNL     1      30.088   7.938  -5.399  1.00  0.00    -0.238 NA
ATOM      4  C   UNL     1      29.332   8.985  -5.798  1.00  0.00     0.136 A
ATOM      5  C   UNL     1      29.401  10.190  -5.070  1.00  0.00     0.051 A
ATOM      6  C   UNL     1      30.382  10.353  -4.097  1.00  0.00     0.065 A
ATOM      7  N   UNL     1      30.336  11.675  -3.697  1.00  0.00    -0.354 N
ATOM      8  C   UNL     1      29.337  12.353  -4.358  1.00  0.00     0.047 A
ATOM      9  C   UNL     1      29.000  13.716  -4.388  1.00  0.00     0.037 A
ATOM     10  C   UNL     1      27.905  14.094  -5.184  1.00  0.00     0.004 A
ATOM     11  C   UNL     1      27.116  13.104  -5.803  1.00  0.00     0.011 A
ATOM     12  C   UNL     1      27.486  11.766  -5.790  1.00  0.00     0.012 A
ATOM     13  C   UNL     1      28.656  11.401  -5.116  1.00  0.00     0.011 A
ATOM     14  H   UNL     1      30.985  12.077  -3.028  1.00  0.00     0.167 HD
ENDROOT
BRANCH   1  15
ATOM     15  C   UNL     1      32.251   9.505  -2.670  1.00  0.00     0.252 C
ATOM     16  N   UNL     1      32.253   8.691  -1.574  1.00  0.00    -0.365 N
ATOM     17  O   UNL     1      33.101  10.384  -2.790  1.00  0.00    -0.269 OA
ATOM     18  H   UNL     1      32.975   8.859  -0.884  1.00  0.00     0.159 HD
ATOM     19  H   UNL     1      31.617   7.927  -1.401  1.00  0.00     0.159 HD
ENDBRANCH   1  15
BRANCH   4  20
ATOM     20  N   UNL     1      28.608   8.850  -6.986  1.00  0.00    -0.358 N
ATOM     21  H   UNL     1      28.602   9.747  -7.471  1.00  0.00     0.162 HD
BRANCH  20  22
ATOM     22  C   UNL     1      27.227   8.328  -6.751  1.00  0.00     0.189 C
BRANCH  22  23
ATOM     23  C   UNL     1      27.310   6.811  -6.576  1.00  0.00     0.025 C
ATOM     24  C   UNL     1      26.025   6.026  -6.403  1.00  0.00     0.011 C
ATOM     25  C   UNL     1      26.982   6.117  -5.247  1.00  0.00     0.005 C
ATOM     26  G   UNL     1      27.685   4.870  -4.793  1.00  0.00     0.000 C
ENDBRANCH  22  23
BRANCH  22  27
ATOM     27  C   UNL     1      26.257   8.719  -7.916  1.00  0.00     0.408 C
ATOM     28  F   UNL     1      24.956   8.594  -7.566  1.00  0.00    -0.169 F
ATOM     29  F   UNL     1      26.462   7.930  -9.001  1.00  0.00    -0.169 F
ATOM     30  F   UNL     1      26.426  10.003  -8.308  1.00  0.00    -0.169 F
ENDBRANCH  22  27
ENDBRANCH  20  22
ENDBRANCH   4  20
BRANCH  10  31
ATOM     31  C   UNL     1      27.673  15.474  -5.627  1.00  0.00     0.093 A
ATOM     32  C   UNL     1      27.903  15.860  -6.940  1.00  0.00     0.035 A
ATOM     33  N   UNL     1      27.786  16.362  -4.613  1.00  0.00    -0.148 NA
ATOM     34  C   UNL     1      28.526  17.086  -7.155  1.00  0.00     0.051 A
ATOM     35  N   UNL     1      28.414  17.546  -4.828  1.00  0.00    -0.132 NA
ATOM     36  C   UNL     1      28.893  17.845  -6.051  1.00  0.00     0.151 A
BRANCH  36  37
ATOM     37  N   UNL     1      29.990  18.704  -6.164  1.00  0.00    -0.349 N
ATOM     38  C   UNL     1      29.700  20.019  -6.734  1.00  0.00     0.134 C
ATOM     39  C   UNL     1      31.043  18.532  -5.113  1.00  0.00     0.108 C
ATOM     40  C   UNL     1      29.863  21.098  -5.691  1.00  0.00     0.158 C
ATOM     41  C   UNL     1      32.175  19.516  -5.379  1.00  0.00     0.162 C
ATOM     42  S   UNL     1      31.575  21.186  -5.221  1.00  0.00     0.154 S
ATOM     43  O   UNL     1      32.257  21.988  -6.219  1.00  0.00    -0.229 OA
ATOM     44  O   UNL     1      31.627  21.557  -3.819  1.00  0.00    -0.229 OA
BRANCH  39  45
ATOM     45  C   UNL     1      31.566  17.057  -5.111  1.00  0.00     0.095 C
BRANCH  45  46
ATOM     46  S   UNL     1      31.661  16.250  -3.471  1.00  0.00    -0.160 SA
BRANCH  46  47
ATOM     47  C   UNL     1      32.833  14.892  -3.847  1.00  0.00     0.073 C
ATOM     48  G   UNL     1      32.903  13.959  -2.672  1.00  0.00     0.000 C
ENDBRANCH  46  47
ENDBRANCH  45  46
ENDBRANCH  39  45
ENDBRANCH  36  37
ENDBRANCH  10  31
TORSDOF 2
ENDMDL
MODEL 2
REMARK VINA RESULT:      -8.7      1.346      2.698
REMARK SMILES NC(=O)c1cnc2c3c1[nH]c1cc(ccc13)-c1ccc(nn1)N1CCS(=O)(=O)C[C@@H]1CSC[C@@H]1C[C@H]1[C@H](C(F)(F)F)N2
REMARK SMILES IDX 4 1 5 2 6 3 7 4 8 5 9 6 10 7 11 8 12 9 13 10 14 11 15 12
REMARK SMILES IDX 16 13 2 15 1 16 3 17 42 20 37 22 36 23 35 24 34 25 38 27
REMARK SMILES IDX 39 28 40 29 41 30 17 31 18 32 22 33 19 34 21 35 20 36 23 37
REMARK SMILES IDX 24 38 30 39 25 40 29 41 26 42 27 43 28 44 31 45 32 46 33 47
REMARK H PARENT 10 14 1 18 1 19 42 21
REMARK Flexibility Score:   57.900
ROOT
ATOM      1  C   UNL     1      31.447   9.371  -3.576  1.00  0.00     0.082 A
ATOM      2  C   UNL     1      31.158   8.180  -4.233  1.00  0.00     0.129 A
ATOM      3  N   UNL     1      30.242   8.022  -5.228  1.00  0.00    -0.238 NA
ATOM      4  C   UNL     1      29.518   9.089  -5.634  1.00  0.00     0.136 A
ATOM      5  C   UNL     1      29.638  10.301  -4.924  1.00  0.00     0.051 A
ATOM      6  C   UNL     1      30.637  10.443  -3.966  1.00  0.00     0.065 A
ATOM      7  N   UNL     1      30.642  11.772  -3.584  1.00  0.00    -0.354 N
ATOM      8  C   UNL     1      29.659  12.475  -4.243  1.00  0.00     0.047 A
ATOM      9  C   UNL     1      29.369  13.849  -4.289  1.00  0.00     0.037 A
ATOM     10  C   UNL     1      28.278  14.253  -5.077  1.00  0.00     0.004 A
ATOM     11  C   UNL     1      27.447  13.283  -5.672  1.00  0.00     0.011 A
ATOM     12  C   UNL     1      27.770  11.933  -5.644  1.00  0.00     0.012 A
ATOM     13  C   UNL     1      28.936  11.537  -4.979  1.00  0.00     0.011 A
ATOM     14  H   UNL     1      31.313  12.160  -2.929  1.00  0.00     0.167 HD
ENDROOT
BRANCH   1  15
ATOM     15  C   UNL     1      32.493   9.551  -2.548  1.00  0.00     0.252 C
ATOM     16  N   UNL     1      32.588   8.645  -1.532  1.00  0.00    -0.365 N
ATOM     17  O   UNL     1      33.275  10.496  -2.612  1.00  0.00    -0.269 OA
ATOM     18  H   UNL     1      33.321   8.801  -0.850  1.00  0.00     0.159 HD
ATOM     19  H   UNL     1      32.012   7.825  -1.412  1.00  0.00     0.159 HD
ENDBRANCH   1  15
BRANCH   4  20
ATOM     20  N   UNL     1      28.775   8.963  -6.811  1.00  0.00    -0.358 N
ATOM     21  H   UNL     1      28.685   9.882  -7.243  1.00  0.00     0.162 HD
BRANCH  20  22
ATOM     22  C   UNL     1      27.446   8.319  -6.575  1.00  0.00     0.189 C
BRANCH  22  23
ATOM     23  C   UNL     1      27.641   6.802  -6.573  1.00  0.00     0.025 C
ATOM     24  C   UNL     1      26.424   5.911  -6.424  1.00  0.00     0.011 C
ATOM     25  C   UNL     1      27.437   5.949  -5.314  1.00  0.00     0.005 C
ATOM     26  G   UNL     1      28.247   4.715  -5.035  1.00  0.00     0.000 C
ENDBRANCH  22  23
BRANCH  22  27
ATOM     27  C   UNL     1      26.394   8.760  -7.646  1.00  0.00     0.408 C
ATOM     28  F   UNL     1      25.126   8.468  -7.274  1.00  0.00    -0.169 F
ATOM     29  F   UNL     1      26.620   8.139  -8.832  1.00  0.00    -0.169 F
ATOM     30  F   UNL     1      26.428  10.094  -7.872  1.00  0.00    -0.169 F
ENDBRANCH  22  27
ENDBRANCH  20  22
ENDBRANCH   4  20
BRANCH  10  31
ATOM     31  C   UNL     1      28.089  15.634  -5.538  1.00  0.00     0.093 A
ATOM     32  C   UNL     1      28.677  16.093  -6.708  1.00  0.00     0.035 A
ATOM     33  N   UNL     1      27.821  16.480  -4.517  1.00  0.00    -0.148 NA
ATOM     34  C   UNL     1      29.241  17.365  -6.693  1.00  0.00     0.051 A
ATOM     35  N   UNL     1      28.394  17.711  -4.502  1.00  0.00    -0.132 NA
ATOM     36  C   UNL     1      29.197  18.095  -5.513  1.00  0.00     0.151 A
BRANCH  36  37
ATOM     37  N   UNL     1      30.209  19.028  -5.264  1.00  0.00    -0.349 N
ATOM     38  C   UNL     1      31.385  18.505  -4.570  1.00  0.00     0.134 C
ATOM     39  C   UNL     1      30.333  20.118  -6.282  1.00  0.00     0.108 C
ATOM     40  C   UNL     1      32.586  18.506  -5.485  1.00  0.00     0.158 C
ATOM     41  C   UNL     1      31.457  21.060  -5.867  1.00  0.00     0.162 C
ATOM     42  S   UNL     1      33.010  20.188  -5.872  1.00  0.00     0.154 S
ATOM     43  O   UNL     1      33.798  20.701  -4.766  1.00  0.00    -0.229 OA
ATOM     44  O   UNL     1      33.539  20.209  -7.223  1.00  0.00    -0.229 OA
BRANCH  39  45
ATOM     45  C   UNL     1      28.975  20.885  -6.419  1.00  0.00     0.095 C
BRANCH  45  46
ATOM     46  S   UNL     1      28.077  20.633  -7.994  1.00  0.00    -0.160 SA
BRANCH  46  47
ATOM     47  C   UNL     1      26.355  20.547  -7.373  1.00  0.00     0.073 C
ATOM     48  G   UNL     1      26.007  19.117  -7.073  1.00  0.00     0.000 C
ENDBRANCH  46  47
ENDBRANCH  45  46
ENDBRANCH  39  45
ENDBRANCH  36  37
ENDBRANCH  10  31
TORSDOF 2
ENDMDL
MODEL 3
REMARK VINA RESULT:      -8.5      1.109      1.720
REMARK SMILES NC(=O)c1cnc2c3c1[nH]c1cc(ccc13)-c1ccc(nn1)N1CCS(=O)(=O)C[C@@H]1CSC[C@@H]1C[C@H]1[C@H](C(F)(F)F)N2
REMARK SMILES IDX 4 1 5 2 6 3 7 4 8 5 9 6 10 7 11 8 12 9 13 10 14 11 15 12
REMARK SMILES IDX 16 13 2 15 1 16 3 17 42 20 37 22 36 23 35 24 34 25 38 27
REMARK SMILES IDX 39 28 40 29 41 30 17 31 18 32 22 33 19 34 21 35 20 36 23 37
REMARK SMILES IDX 24 38 30 39 25 40 29 41 26 42 27 43 28 44 31 45 32 46 33 47
REMARK H PARENT 10 14 1 18 1 19 42 21
REMARK Flexibility Score:   57.900
ROOT
ATOM      1  C   UNL     1      31.320   9.207  -3.850  1.00  0.00     0.082 A
ATOM      2  C   UNL     1      30.892   7.995  -4.379  1.00  0.00     0.129 A
ATOM      3  N   UNL     1      29.821   7.819  -5.200  1.00  0.00    -0.238 NA
ATOM      4  C   UNL     1      29.070   8.890  -5.543  1.00  0.00     0.136 A
ATOM      5  C   UNL     1      29.341  10.132  -4.935  1.00  0.00     0.051 A
ATOM      6  C   UNL     1      30.488  10.287  -4.163  1.00  0.00     0.065 A
ATOM      7  N   UNL     1      30.594  11.633  -3.866  1.00  0.00    -0.354 N
ATOM      8  C   UNL     1      29.536  12.337  -4.396  1.00  0.00     0.047 A
ATOM      9  C   UNL     1      29.282  13.716  -4.473  1.00  0.00     0.037 A
ATOM     10  C   UNL     1      28.088  14.120  -5.094  1.00  0.00     0.004 A
ATOM     11  C   UNL     1      27.142  13.151  -5.487  1.00  0.00     0.011 A
ATOM     12  C   UNL     1      27.426  11.794  -5.434  1.00  0.00     0.012 A
ATOM     13  C   UNL     1      28.674  11.389  -4.947  1.00  0.00     0.011 A
ATOM     14  H   UNL     1      31.375  12.030  -3.354  1.00  0.00     0.167 HD
ENDROOT
BRANCH   1  15
ATOM     15  C   UNL     1      32.527   9.402  -3.019  1.00  0.00     0.252 C
ATOM     16  N   UNL     1      32.915   8.407  -2.169  1.00  0.00    -0.365 N
ATOM     17  O   UNL     1      33.181  10.438  -3.101  1.00  0.00    -0.269 OA
ATOM     18  H   UNL     1      33.749   8.578  -1.620  1.00  0.00     0.159 HD
ATOM     19  H   UNL     1      32.461   7.514  -2.054  1.00  0.00     0.159 HD
ENDBRANCH   1  15
BRANCH   4  20
ATOM     20  N   UNL     1      28.138   8.730  -6.573  1.00  0.00    -0.358 N
ATOM     21  H   UNL     1      27.536   9.552  -6.602  1.00  0.00     0.162 HD
BRANCH  20  22
ATOM     22  C   UNL     1      27.357   7.462  -6.437  1.00  0.00     0.189 C
BRANCH  22  23
ATOM     23  C   UNL     1      26.759   7.118  -7.802  1.00  0.00     0.025 C
ATOM     24  C   UNL     1      27.656   6.503  -8.856  1.00  0.00     0.011 C
ATOM     25  C   UNL     1      27.122   7.890  -9.077  1.00  0.00     0.005 C
ATOM     26  G   UNL     1      26.140   8.116 -10.191  1.00  0.00     0.000 C
ENDBRANCH  22  23
BRANCH  22  27
ATOM     27  C   UNL     1      26.247   7.585  -5.339  1.00  0.00     0.408 C
ATOM     28  F   UNL     1      26.281   8.779  -4.705  1.00  0.00    -0.169 F
ATOM     29  F   UNL     1      26.393   6.621  -4.395  1.00  0.00    -0.169 F
ATOM     30  F   UNL     1      25.004   7.462  -5.858  1.00  0.00    -0.169 F
ENDBRANCH  22  27
ENDBRANCH  20  22
ENDBRANCH   4  20
BRANCH  10  31
ATOM     31  C   UNL     1      27.864  15.480  -5.598  1.00  0.00     0.093 A
ATOM     32  C   UNL     1      28.155  15.822  -6.911  1.00  0.00     0.035 A
ATOM     33  N   UNL     1      27.918  16.404  -4.612  1.00  0.00    -0.148 NA
ATOM     34  C   UNL     1      28.776  17.047  -7.139  1.00  0.00     0.051 A
ATOM     35  N   UNL     1      28.543  17.588  -4.838  1.00  0.00    -0.132 NA
ATOM     36  C   UNL     1      29.079  17.849  -6.046  1.00  0.00     0.151 A
BRANCH  36  37
ATOM     37  N   UNL     1      30.172  18.716  -6.135  1.00  0.00    -0.349 N
ATOM     38  C   UNL     1      29.878  20.041  -6.679  1.00  0.00     0.134 C
ATOM     39  C   UNL     1      31.220  18.529  -5.083  1.00  0.00     0.108 C
ATOM     40  C   UNL     1      30.028  21.099  -5.613  1.00  0.00     0.158 C
ATOM     41  C   UNL     1      32.348  19.525  -5.321  1.00  0.00     0.162 C
ATOM     42  S   UNL     1      31.737  21.187  -5.132  1.00  0.00     0.154 S
ATOM     43  O   UNL     1      32.420  22.014  -6.110  1.00  0.00    -0.229 OA
ATOM     44  O   UNL     1      31.780  21.530  -3.723  1.00  0.00    -0.229 OA
BRANCH  39  45
ATOM     45  C   UNL     1      31.752  17.056  -5.108  1.00  0.00     0.095 C
BRANCH  45  46
ATOM     46  S   UNL     1      31.860  16.223  -3.482  1.00  0.00    -0.160 SA
BRANCH  46  47
ATOM     47  C   UNL     1      32.761  14.700  -3.960  1.00  0.00     0.073 C
ATOM     48  G   UNL     1      33.198  13.972  -2.721  1.00  0.00     0.000 C
ENDBRANCH  46  47
ENDBRANCH  45  46
ENDBRANCH  39  45
ENDBRANCH  36  37
ENDBRANCH  10  31
TORSDOF 2
ENDMDL
MODEL 4
REMARK VINA RESULT:      -8.5      2.768      3.774
REMARK SMILES NC(=O)c1cnc2c3c1[nH]c1cc(ccc13)-c1ccc(nn1)N1CCS(=O)(=O)C[C@@H]1CSC[C@@H]1C[C@H]1[C@H](C(F)(F)F)N2
REMARK SMILES IDX 4 1 5 2 6 3 7 4 8 5 9 6 10 7 11 8 12 9 13 10 14 11 15 12
REMARK SMILES IDX 16 13 2 15 1 16 3 17 42 20 37 22 36 23 35 24 34 25 38 27
REMARK SMILES IDX 39 28 40 29 41 30 17 31 18 32 22 33 19 34 21 35 20 36 23 37
REMARK SMILES IDX 24 38 30 39 25 40 29 41 26 42 27 43 28 44 31 45 32 46 33 47
REMARK H PARENT 10 14 1 18 1 19 42 21
REMARK Flexibility Score:   57.900
ROOT
ATOM      1  C   UNL     1      32.840   9.533  -2.958  1.00  0.00     0.082 A
ATOM      2  C   UNL     1      32.201   8.385  -3.413  1.00  0.00     0.129 A
ATOM      3  N   UNL     1      31.148   8.350  -4.275  1.00  0.00    -0.238 NA
ATOM      4  C   UNL     1      30.639   9.513  -4.742  1.00  0.00     0.136 A
ATOM      5  C   UNL     1      31.128  10.727  -4.220  1.00  0.00     0.051 A
ATOM      6  C   UNL     1      32.252  10.723  -3.400  1.00  0.00     0.065 A
ATOM      7  N   UNL     1      32.612  12.042  -3.204  1.00  0.00    -0.354 N
ATOM      8  C   UNL     1      31.736  12.890  -3.844  1.00  0.00     0.047 A
ATOM      9  C   UNL     1      31.765  14.280  -4.044  1.00  0.00     0.037 A
ATOM     10  C   UNL     1      30.700  14.852  -4.759  1.00  0.00     0.004 A
ATOM     11  C   UNL     1      29.597  14.056  -5.126  1.00  0.00     0.011 A
ATOM     12  C   UNL     1      29.602  12.679  -4.951  1.00  0.00     0.012 A
ATOM     13  C   UNL     1      30.726  12.084  -4.366  1.00  0.00     0.011 A
ATOM     14  H   UNL     1      33.436  12.322  -2.682  1.00  0.00     0.167 HD
ENDROOT
BRANCH   1  15
ATOM     15  C   UNL     1      34.029   9.560  -2.080  1.00  0.00     0.252 C
ATOM     16  N   UNL     1      35.029  10.451  -2.346  1.00  0.00    -0.365 N
ATOM     17  O   UNL     1      34.112   8.803  -1.117  1.00  0.00    -0.269 OA
ATOM     18  H   UNL     1      35.825  10.441  -1.719  1.00  0.00     0.159 HD
ATOM     19  H   UNL     1      35.037  11.129  -3.093  1.00  0.00     0.159 HD
ENDBRANCH   1  15
BRANCH   4  20
ATOM     20  N   UNL     1      29.734   9.448  -5.806  1.00  0.00    -0.358 N
ATOM     21  H   UNL     1      29.382  10.386  -5.995  1.00  0.00     0.162 HD
BRANCH  20  22
ATOM     22  C   UNL     1      28.631   8.471  -5.552  1.00  0.00     0.189 C
BRANCH  22  23
ATOM     23  C   UNL     1      28.698   7.381  -6.621  1.00  0.00     0.025 C
ATOM     24  C   UNL     1      27.581   6.358  -6.691  1.00  0.00     0.011 C
ATOM     25  C   UNL     1      28.954   5.907  -6.277  1.00  0.00     0.005 C
ATOM     26  G   UNL     1      29.716   4.986  -7.188  1.00  0.00     0.000 C
ENDBRANCH  22  23
BRANCH  22  27
ATOM     27  C   UNL     1      27.232   9.175  -5.538  1.00  0.00     0.408 C
ATOM     28  F   UNL     1      27.283  10.411  -4.991  1.00  0.00    -0.169 F
ATOM     29  F   UNL     1      26.335   8.452  -4.820  1.00  0.00    -0.169 F
ATOM     30  F   UNL     1      26.728   9.328  -6.784  1.00  0.00    -0.169 F
ENDBRANCH  22  27
ENDBRANCH  20  22
ENDBRANCH   4  20
BRANCH  10  31
ATOM     31  C   UNL     1      30.771  16.181  -5.379  1.00  0.00     0.093 A
ATOM     32  C   UNL     1      30.692  17.339  -4.619  1.00  0.00     0.035 A
ATOM     33  N   UNL     1      30.356  16.166  -6.666  1.00  0.00    -0.148 NA
ATOM     34  C   UNL     1      29.920  18.386  -5.113  1.00  0.00     0.051 A
ATOM     35  N   UNL     1      29.585  17.182  -7.132  1.00  0.00    -0.132 NA
ATOM     36  C   UNL     1      29.264  18.212  -6.325  1.00  0.00     0.151 A
BRANCH  36  37
ATOM     37  N   UNL     1      28.073  18.909  -6.549  1.00  0.00    -0.349 N
ATOM     38  C   UNL     1      28.226  20.336  -6.825  1.00  0.00     0.134 C
ATOM     39  C   UNL     1      26.979  18.111  -7.187  1.00  0.00     0.108 C
ATOM     40  C   UNL     1      27.846  20.645  -8.253  1.00  0.00     0.158 C
ATOM     41  C   UNL     1      25.749  18.994  -7.347  1.00  0.00     0.162 C
ATOM     42  S   UNL     1      26.108  20.336  -8.461  1.00  0.00     0.154 S
ATOM     43  O   UNL     1      25.399  21.506  -7.975  1.00  0.00    -0.229 OA
ATOM     44  O   UNL     1      25.905  19.868  -9.819  1.00  0.00    -0.229 OA
BRANCH  39  45
ATOM     45  C   UNL     1      26.659  16.847  -6.321  1.00  0.00     0.095 C
BRANCH  45  46
ATOM     46  S   UNL     1      26.438  15.284  -7.249  1.00  0.00    -0.160 SA
BRANCH  46  47
ATOM     47  C   UNL     1      25.836  14.194  -5.905  1.00  0.00     0.073 C
ATOM     48  G   UNL     1      26.132  14.832  -4.578  1.00  0.00     0.000 C
ENDBRANCH  46  47
ENDBRANCH  45  46
ENDBRANCH  39  45
ENDBRANCH  36  37
ENDBRANCH  10  31
TORSDOF 2
ENDMDL
MODEL 5
REMARK VINA RESULT:      -8.2      1.376      2.158
REMARK SMILES NC(=O)c1cnc2c3c1[nH]c1cc(ccc13)-c1ccc(nn1)N1CCS(=O)(=O)C[C@@H]1CSC[C@@H]1C[C@H]1[C@H](C(F)(F)F)N2
REMARK SMILES IDX 4 1 5 2 6 3 7 4 8 5 9 6 10 7 11 8 12 9 13 10 14 11 15 12
REMARK SMILES IDX 16 13 2 15 1 16 3 17 42 20 37 22 36 23 35 24 34 25 38 27
REMARK SMILES IDX 39 28 40 29 41 30 17 31 18 32 22 33 19 34 21 35 20 36 23 37
REMARK SMILES IDX 24 38 30 39 25 40 29 41 26 42 27 43 28 44 31 45 32 46 33 47
REMARK H PARENT 10 14 1 18 1 19 42 21
REMARK Flexibility Score:   57.900
ROOT
ATOM      1  C   UNL     1      30.164   9.558  -4.618  1.00  0.00     0.082 A
ATOM      2  C   UNL     1      29.554   8.470  -5.234  1.00  0.00     0.129 A
ATOM      3  N   UNL     1      28.420   8.515  -5.986  1.00  0.00    -0.238 NA
ATOM      4  C   UNL     1      27.791   9.698  -6.162  1.00  0.00     0.136 A
ATOM      5  C   UNL     1      28.254  10.826  -5.454  1.00  0.00     0.051 A
ATOM      6  C   UNL     1      29.457  10.757  -4.758  1.00  0.00     0.065 A
ATOM      7  N   UNL     1      29.751  12.040  -4.336  1.00  0.00    -0.354 N
ATOM      8  C   UNL     1      28.760  12.919  -4.710  1.00  0.00     0.047 A
ATOM      9  C   UNL     1      28.679  14.319  -4.629  1.00  0.00     0.037 A
ATOM     10  C   UNL     1      27.509  14.927  -5.115  1.00  0.00     0.004 A
ATOM     11  C   UNL     1      26.426  14.127  -5.532  1.00  0.00     0.011 A
ATOM     12  C   UNL     1      26.538  12.748  -5.637  1.00  0.00     0.012 A
ATOM     13  C   UNL     1      27.753  12.147  -5.288  1.00  0.00     0.011 A
ATOM     14  H   UNL     1      30.606  12.282  -3.846  1.00  0.00     0.167 HD
ENDROOT
BRANCH   1  15
ATOM     15  C   UNL     1      31.435   9.515  -3.865  1.00  0.00     0.252 C
ATOM     16  N   UNL     1      31.793   8.359  -3.234  1.00  0.00    -0.365 N
ATOM     17  O   UNL     1      32.166  10.500  -3.817  1.00  0.00    -0.269 OA
ATOM     18  H   UNL     1      32.673   8.369  -2.732  1.00  0.00     0.159 HD
ATOM     19  H   UNL     1      31.275   7.494  -3.241  1.00  0.00     0.159 HD
ENDBRANCH   1  15
BRANCH   4  20
ATOM     20  N   UNL     1      26.785   9.764  -7.130  1.00  0.00    -0.358 N
ATOM     21  H   UNL     1      25.887   9.880  -6.662  1.00  0.00     0.162 HD
BRANCH  20  22
ATOM     22  C   UNL     1      26.798   8.579  -8.042  1.00  0.00     0.189 C
BRANCH  22  23
ATOM     23  C   UNL     1      26.893   9.082  -9.482  1.00  0.00     0.025 C
ATOM     24  C   UNL     1      27.341   8.119 -10.563  1.00  0.00     0.011 C
ATOM     25  C   UNL     1      28.236   9.272 -10.200  1.00  0.00     0.005 C
ATOM     26  G   UNL     1      28.463  10.355 -11.216  1.00  0.00     0.000 C
ENDBRANCH  22  23
BRANCH  22  27
ATOM     27  C   UNL     1      25.536   7.678  -7.831  1.00  0.00     0.408 C
ATOM     28  F   UNL     1      24.997   7.825  -6.599  1.00  0.00    -0.169 F
ATOM     29  F   UNL     1      25.848   6.365  -7.982  1.00  0.00    -0.169 F
ATOM     30  F   UNL     1      24.552   7.966  -8.715  1.00  0.00    -0.169 F
ENDBRANCH  22  27
ENDBRANCH  20  22
ENDBRANCH   4  20
BRANCH  10  31
ATOM     31  C   UNL     1      27.429  16.352  -5.461  1.00  0.00     0.093 A
ATOM     32  C   UNL     1      27.586  16.788  -6.768  1.00  0.00     0.035 A
ATOM     33  N   UNL     1      27.756  17.149  -4.418  1.00  0.00    -0.148 NA
ATOM     34  C   UNL     1      28.349  17.933  -6.981  1.00  0.00     0.051 A
ATOM     35  N   UNL     1      28.518  18.252  -4.634  1.00  0.00    -0.132 NA
ATOM     36  C   UNL     1      28.918  18.564  -5.882  1.00  0.00     0.151 A
BRANCH  36  37
ATOM     37  N   UNL     1      30.107  19.276  -6.060  1.00  0.00    -0.349 N
ATOM     38  C   UNL     1      29.954  20.631  -6.587  1.00  0.00     0.134 C
ATOM     39  C   UNL     1      31.199  18.943  -5.090  1.00  0.00     0.108 C
ATOM     40  C   UNL     1      30.328  21.653  -5.541  1.00  0.00     0.158 C
ATOM     41  C   UNL     1      32.429  19.779  -5.421  1.00  0.00     0.162 C
ATOM     42  S   UNL     1      32.065  21.507  -5.194  1.00  0.00     0.154 S
ATOM     43  O   UNL     1      32.775  22.240  -6.226  1.00  0.00    -0.229 OA
ATOM     44  O   UNL     1      32.262  21.834  -3.794  1.00  0.00    -0.229 OA
BRANCH  39  45
ATOM     45  C   UNL     1      31.523  17.413  -5.149  1.00  0.00     0.095 C
BRANCH  45  46
ATOM     46  S   UNL     1      31.520  16.539  -3.540  1.00  0.00    -0.160 SA
BRANCH  46  47
ATOM     47  C   UNL     1      33.089  15.602  -3.680  1.00  0.00     0.073 C
ATOM     48  G   UNL     1      32.794  14.130  -3.634  1.00  0.00     0.000 C
ENDBRANCH  46  47
ENDBRANCH  45  46
ENDBRANCH  39  45
ENDBRANCH  36  37
ENDBRANCH  10  31
TORSDOF 2
ENDMDL
MODEL 6
REMARK VINA RESULT:      -8.1      1.730      3.226
REMARK SMILES NC(=O)c1cnc2c3c1[nH]c1cc(ccc13)-c1ccc(nn1)N1CCS(=O)(=O)C[C@@H]1CSC[C@@H]1C[C@H]1[C@H](C(F)(F)F)N2
REMARK SMILES IDX 4 1 5 2 6 3 7 4 8 5 9 6 10 7 11 8 12 9 13 10 14 11 15 12
REMARK SMILES IDX 16 13 2 15 1 16 3 17 42 20 37 22 36 23 35 24 34 25 38 27
REMARK SMILES IDX 39 28 40 29 41 30 17 31 18 32 22 33 19 34 21 35 20 36 23 37
REMARK SMILES IDX 24 38 30 39 25 40 29 41 26 42 27 43 28 44 31 45 32 46 33 47
REMARK H PARENT 10 14 1 18 1 19 42 21
REMARK Flexibility Score:   57.900
ROOT
ATOM      1  C   UNL     1      31.430   9.330  -3.569  1.00  0.00     0.082 A
ATOM      2  C   UNL     1      31.106   8.147  -4.226  1.00  0.00     0.129 A
ATOM      3  N   UNL     1      30.173   8.014  -5.208  1.00  0.00    -0.238 NA
ATOM      4  C   UNL     1      29.466   9.098  -5.598  1.00  0.00     0.136 A
ATOM      5  C   UNL     1      29.622  10.304  -4.886  1.00  0.00     0.051 A
ATOM      6  C   UNL     1      30.637  10.421  -3.942  1.00  0.00     0.065 A
ATOM      7  N   UNL     1      30.676  11.747  -3.555  1.00  0.00    -0.354 N
ATOM      8  C   UNL     1      29.699  12.473  -4.196  1.00  0.00     0.047 A
ATOM      9  C   UNL     1      29.438  13.853  -4.232  1.00  0.00     0.037 A
ATOM     10  C   UNL     1      28.344  14.284  -5.002  1.00  0.00     0.004 A
ATOM     11  C   UNL     1      27.484  13.334  -5.588  1.00  0.00     0.011 A
ATOM     12  C   UNL     1      27.778  11.978  -5.571  1.00  0.00     0.012 A
ATOM     13  C   UNL     1      28.945  11.555  -4.925  1.00  0.00     0.011 A
ATOM     14  H   UNL     1      31.365  12.118  -2.908  1.00  0.00     0.167 HD
ENDROOT
BRANCH   1  15
ATOM     15  C   UNL     1      32.495   9.483  -2.556  1.00  0.00     0.252 C
ATOM     16  N   UNL     1      33.620  10.187  -2.877  1.00  0.00    -0.365 N
ATOM     17  O   UNL     1      32.367   8.996  -1.436  1.00  0.00    -0.269 OA
ATOM     18  H   UNL     1      34.324  10.273  -2.154  1.00  0.00     0.159 HD
ATOM     19  H   UNL     1      33.802  10.646  -3.757  1.00  0.00     0.159 HD
ENDBRANCH   1  15
BRANCH   4  20
ATOM     20  N   UNL     1      28.702   8.993  -6.765  1.00  0.00    -0.358 N
ATOM     21  H   UNL     1      28.061   9.784  -6.810  1.00  0.00     0.162 HD
BRANCH  20  22
ATOM     22  C   UNL     1      27.989   7.682  -6.858  1.00  0.00     0.189 C
BRANCH  22  23
ATOM     23  C   UNL     1      27.612   7.443  -8.320  1.00  0.00     0.025 C
ATOM     24  C   UNL     1      28.415   8.137  -9.402  1.00  0.00     0.011 C
ATOM     25  C   UNL     1      26.980   8.533  -9.196  1.00  0.00     0.005 C
ATOM     26  G   UNL     1      25.984   8.223 -10.276  1.00  0.00     0.000 C
ENDBRANCH  22  23
BRANCH  22  27
ATOM     27  C   UNL     1      26.729   7.645  -5.929  1.00  0.00     0.408 C
ATOM     28  F   UNL     1      26.486   8.840  -5.343  1.00  0.00    -0.169 F
ATOM     29  F   UNL     1      26.888   6.733  -4.936  1.00  0.00    -0.169 F
ATOM     30  F   UNL     1      25.606   7.316  -6.608  1.00  0.00    -0.169 F
ENDBRANCH  22  27
ENDBRANCH  20  22
ENDBRANCH   4  20
BRANCH  10  31
ATOM     31  C   UNL     1      28.177  15.671  -5.454  1.00  0.00     0.093 A
ATOM     32  C   UNL     1      28.749  16.120  -6.636  1.00  0.00     0.035 A
ATOM     33  N   UNL     1      27.954  16.520  -4.425  1.00  0.00    -0.148 NA
ATOM     34  C   UNL     1      29.345  17.378  -6.630  1.00  0.00     0.051 A
ATOM     35  N   UNL     1      28.555  17.737  -4.419  1.00  0.00    -0.132 NA
ATOM     36  C   UNL     1      29.345  18.105  -5.447  1.00  0.00     0.151 A
BRANCH  36  37
ATOM     37  N   UNL     1      30.384  19.012  -5.218  1.00  0.00    -0.349 N
ATOM     38  C   UNL     1      31.578  18.451  -4.589  1.00  0.00     0.134 C
ATOM     39  C   UNL     1      30.485  20.126  -6.213  1.00  0.00     0.108 C
ATOM     40  C   UNL     1      32.738  18.454  -5.555  1.00  0.00     0.158 C
ATOM     41  C   UNL     1      31.643  21.037  -5.823  1.00  0.00     0.162 C
ATOM     42  S   UNL     1      33.178  20.137  -5.917  1.00  0.00     0.154 S
ATOM     43  O   UNL     1      34.022  20.606  -4.833  1.00  0.00    -0.229 OA
ATOM     44  O   UNL     1      33.649  20.184  -7.288  1.00  0.00    -0.229 OA
BRANCH  39  45
ATOM     45  C   UNL     1      29.138  20.921  -6.272  1.00  0.00     0.095 C
BRANCH  45  46
ATOM     46  S   UNL     1      28.203  20.783  -7.840  1.00  0.00    -0.160 SA
BRANCH  46  47
ATOM     47  C   UNL     1      26.736  19.850  -7.258  1.00  0.00     0.073 C
ATOM     48  G   UNL     1      26.246  18.957  -8.363  1.00  0.00     0.000 C
ENDBRANCH  46  47
ENDBRANCH  45  46
ENDBRANCH  39  45
ENDBRANCH  36  37
ENDBRANCH  10  31
TORSDOF 2
ENDMDL
MODEL 7
REMARK VINA RESULT:      -8.0      1.634      2.195
REMARK SMILES NC(=O)c1cnc2c3c1[nH]c1cc(ccc13)-c1ccc(nn1)N1CCS(=O)(=O)C[C@@H]1CSC[C@@H]1C[C@H]1[C@H](C(F)(F)F)N2
REMARK SMILES IDX 4 1 5 2 6 3 7 4 8 5 9 6 10 7 11 8 12 9 13 10 14 11 15 12
REMARK SMILES IDX 16 13 2 15 1 16 3 17 42 20 37 22 36 23 35 24 34 25 38 27
REMARK SMILES IDX 39 28 40 29 41 30 17 31 18 32 22 33 19 34 21 35 20 36 23 37
REMARK SMILES IDX 24 38 30 39 25 40 29 41 26 42 27 43 28 44 31 45 32 46 33 47
REMARK H PARENT 10 14 1 18 1 19 42 21
REMARK Flexibility Score:   57.900
ROOT
ATOM      1  C   UNL     1      31.436   9.017  -3.632  1.00  0.00     0.082 A
ATOM      2  C   UNL     1      31.105   7.760  -4.127  1.00  0.00     0.129 A
ATOM      3  N   UNL     1      30.082   7.488  -4.982  1.00  0.00    -0.238 NA
ATOM      4  C   UNL     1      29.284   8.496  -5.399  1.00  0.00     0.136 A
ATOM      5  C   UNL     1      29.453   9.776  -4.833  1.00  0.00     0.051 A
ATOM      6  C   UNL     1      30.555  10.031  -4.022  1.00  0.00     0.065 A
ATOM      7  N   UNL     1      30.568  11.391  -3.777  1.00  0.00    -0.354 N
ATOM      8  C   UNL     1      29.493  12.007  -4.377  1.00  0.00     0.047 A
ATOM      9  C   UNL     1      29.160  13.364  -4.522  1.00  0.00     0.037 A
ATOM     10  C   UNL     1      27.971  13.669  -5.206  1.00  0.00     0.004 A
ATOM     11  C   UNL     1      27.103  12.629  -5.596  1.00  0.00     0.011 A
ATOM     12  C   UNL     1      27.466  11.295  -5.476  1.00  0.00     0.012 A
ATOM     13  C   UNL     1      28.714  10.988  -4.923  1.00  0.00     0.011 A
ATOM     14  H   UNL     1      31.301  11.855  -3.251  1.00  0.00     0.167 HD
ENDROOT
BRANCH   1  15
ATOM     15  C   UNL     1      32.593   9.318  -2.762  1.00  0.00     0.252 C
ATOM     16  N   UNL     1      33.139   8.315  -2.013  1.00  0.00    -0.365 N
ATOM     17  O   UNL     1      33.067  10.450  -2.722  1.00  0.00    -0.269 OA
ATOM     18  H   UNL     1      33.933   8.561  -1.434  1.00  0.00     0.159 HD
ATOM     19  H   UNL     1      32.839   7.352  -2.002  1.00  0.00     0.159 HD
ENDBRANCH   1  15
BRANCH   4  20
ATOM     20  N   UNL     1      28.408   8.239  -6.458  1.00  0.00    -0.358 N
ATOM     21  H   UNL     1      27.590   7.749  -6.096  1.00  0.00     0.162 HD
BRANCH  20  22
ATOM     22  C   UNL     1      29.068   7.490  -7.571  1.00  0.00     0.189 C
BRANCH  22  23
ATOM     23  C   UNL     1      28.651   8.130  -8.895  1.00  0.00     0.025 C
ATOM     24  C   UNL     1      27.774   9.365  -8.863  1.00  0.00     0.011 C
ATOM     25  C   UNL     1      27.207   8.085  -9.411  1.00  0.00     0.005 C
ATOM     26  G   UNL     1      26.874   8.012 -10.874  1.00  0.00     0.000 C
ENDBRANCH  22  23
BRANCH  22  27
ATOM     27  C   UNL     1      28.710   5.967  -7.532  1.00  0.00     0.408 C
ATOM     28  F   UNL     1      27.663   5.705  -6.715  1.00  0.00    -0.169 F
ATOM     29  F   UNL     1      29.763   5.234  -7.088  1.00  0.00    -0.169 F
ATOM     30  F   UNL     1      28.370   5.494  -8.753  1.00  0.00    -0.169 F
ENDBRANCH  22  27
ENDBRANCH  20  22
ENDBRANCH   4  20
BRANCH  10  31
ATOM     31  C   UNL     1      27.688  14.992  -5.774  1.00  0.00     0.093 A
ATOM     32  C   UNL     1      28.106  15.335  -7.052  1.00  0.00     0.035 A
ATOM     33  N   UNL     1      27.536  15.936  -4.817  1.00  0.00    -0.148 NA
ATOM     34  C   UNL     1      28.635  16.608  -7.241  1.00  0.00     0.051 A
ATOM     35  N   UNL     1      28.074  17.169  -5.002  1.00  0.00    -0.132 NA
ATOM     36  C   UNL     1      28.728  17.456  -6.144  1.00  0.00     0.151 A
BRANCH  36  37
ATOM     37  N   UNL     1      29.740  18.421  -6.128  1.00  0.00    -0.349 N
ATOM     38  C   UNL     1      29.488  19.608  -6.943  1.00  0.00     0.134 C
ATOM     39  C   UNL     1      30.510  18.512  -4.847  1.00  0.00     0.108 C
ATOM     40  C   UNL     1      29.292  20.822  -6.067  1.00  0.00     0.158 C
ATOM     41  C   UNL     1      31.582  19.585  -4.988  1.00  0.00     0.162 C
ATOM     42  S   UNL     1      30.819  21.176  -5.230  1.00  0.00     0.154 S
ATOM     43  O   UNL     1      31.655  21.922  -6.152  1.00  0.00    -0.229 OA
ATOM     44  O   UNL     1      30.490  21.725  -3.929  1.00  0.00    -0.229 OA
BRANCH  39  45
ATOM     45  C   UNL     1      31.143  17.123  -4.498  1.00  0.00     0.095 C
BRANCH  45  46
ATOM     46  S   UNL     1      32.893  16.904  -4.985  1.00  0.00    -0.160 SA
BRANCH  46  47
ATOM     47  C   UNL     1      32.698  15.706  -6.359  1.00  0.00     0.073 C
ATOM     48  G   UNL     1      32.184  14.405  -5.812  1.00  0.00     0.000 C
ENDBRANCH  46  47
ENDBRANCH  45  46
ENDBRANCH  39  45
ENDBRANCH  36  37
ENDBRANCH  10  31
TORSDOF 2
ENDMDL
MODEL 8
REMARK VINA RESULT:      -8.0      1.926      3.592
REMARK SMILES NC(=O)c1cnc2c3c1[nH]c1cc(ccc13)-c1ccc(nn1)N1CCS(=O)(=O)C[C@@H]1CSC[C@@H]1C[C@H]1[C@H](C(F)(F)F)N2
REMARK SMILES IDX 4 1 5 2 6 3 7 4 8 5 9 6 10 7 11 8 12 9 13 10 14 11 15 12
REMARK SMILES IDX 16 13 2 15 1 16 3 17 42 20 37 22 36 23 35 24 34 25 38 27
REMARK SMILES IDX 39 28 40 29 41 30 17 31 18 32 22 33 19 34 21 35 20 36 23 37
REMARK SMILES IDX 24 38 30 39 25 40 29 41 26 42 27 43 28 44 31 45 32 46 33 47
REMARK H PARENT 10 14 1 18 1 19 42 21
REMARK Flexibility Score:   57.900
ROOT
ATOM      1  C   UNL     1      31.679   9.195  -3.551  1.00  0.00     0.082 A
ATOM      2  C   UNL     1      31.352   7.896  -3.926  1.00  0.00     0.129 A
ATOM      3  N   UNL     1      30.299   7.536  -4.710  1.00  0.00    -0.238 NA
ATOM      4  C   UNL     1      29.465   8.493  -5.175  1.00  0.00     0.136 A
ATOM      5  C   UNL     1      29.633   9.818  -4.725  1.00  0.00     0.051 A
ATOM      6  C   UNL     1      30.762  10.158  -3.987  1.00  0.00     0.065 A
ATOM      7  N   UNL     1      30.759  11.534  -3.857  1.00  0.00    -0.354 N
ATOM      8  C   UNL     1      29.648  12.080  -4.459  1.00  0.00     0.047 A
ATOM      9  C   UNL     1      29.283  13.415  -4.702  1.00  0.00     0.037 A
ATOM     10  C   UNL     1      28.061  13.642  -5.358  1.00  0.00     0.004 A
ATOM     11  C   UNL     1      27.198  12.560  -5.622  1.00  0.00     0.011 A
ATOM     12  C   UNL     1      27.591  11.246  -5.407  1.00  0.00     0.012 A
ATOM     13  C   UNL     1      28.867  11.006  -4.884  1.00  0.00     0.011 A
ATOM     14  H   UNL     1      31.504  12.052  -3.403  1.00  0.00     0.167 HD
ENDROOT
BRANCH   1  15
ATOM     15  C   UNL     1      32.865   9.586  -2.761  1.00  0.00     0.252 C
ATOM     16  N   UNL     1      33.225   8.827  -1.685  1.00  0.00    -0.365 N
ATOM     17  O   UNL     1      33.526  10.573  -3.073  1.00  0.00    -0.269 OA
ATOM     18  H   UNL     1      34.046   9.126  -1.172  1.00  0.00     0.159 HD
ATOM     19  H   UNL     1      32.764   7.987  -1.370  1.00  0.00     0.159 HD
ENDBRANCH   1  15
BRANCH   4  20
ATOM     20  N   UNL     1      28.551   8.134  -6.170  1.00  0.00    -0.358 N
ATOM     21  H   UNL     1      27.755   7.670  -5.733  1.00  0.00     0.162 HD
BRANCH  20  22
ATOM     22  C   UNL     1      29.177   7.294  -7.238  1.00  0.00     0.189 C
BRANCH  22  23
ATOM     23  C   UNL     1      28.879   7.937  -8.592  1.00  0.00     0.025 C
ATOM     24  C   UNL     1      27.886   9.081  -8.653  1.00  0.00     0.011 C
ATOM     25  C   UNL     1      27.528   7.773  -9.301  1.00  0.00     0.005 C
ATOM     26  G   UNL     1      27.402   7.719 -10.797  1.00  0.00     0.000 C
ENDBRANCH  22  23
BRANCH  22  27
ATOM     27  C   UNL     1      28.666   5.816  -7.180  1.00  0.00     0.408 C
ATOM     28  F   UNL     1      29.419   5.042  -6.364  1.00  0.00    -0.169 F
ATOM     29  F   UNL     1      28.690   5.247  -8.413  1.00  0.00    -0.169 F
ATOM     30  F   UNL     1      27.396   5.735  -6.719  1.00  0.00    -0.169 F
ENDBRANCH  22  27
ENDBRANCH  20  22
ENDBRANCH   4  20
BRANCH  10  31
ATOM     31  C   UNL     1      27.729  14.908  -6.022  1.00  0.00     0.093 A
ATOM     32  C   UNL     1      28.520  15.419  -7.041  1.00  0.00     0.035 A
ATOM     33  N   UNL     1      27.010  15.729  -5.223  1.00  0.00    -0.148 NA
ATOM     34  C   UNL     1      28.778  16.787  -7.036  1.00  0.00     0.051 A
ATOM     35  N   UNL     1      27.284  17.059  -5.211  1.00  0.00    -0.132 NA
ATOM     36  C   UNL     1      28.246  17.558  -6.011  1.00  0.00     0.151 A
BRANCH  36  37
ATOM     37  N   UNL     1      28.926  18.716  -5.620  1.00  0.00    -0.349 N
ATOM     38  C   UNL     1      29.862  18.548  -4.511  1.00  0.00     0.134 C
ATOM     39  C   UNL     1      29.198  19.695  -6.720  1.00  0.00     0.108 C
ATOM     40  C   UNL     1      31.285  18.725  -4.985  1.00  0.00     0.158 C
ATOM     41  C   UNL     1      29.921  20.904  -6.141  1.00  0.00     0.162 C
ATOM     42  S   UNL     1      31.509  20.410  -5.503  1.00  0.00     0.154 S
ATOM     43  O   UNL     1      31.762  21.199  -4.311  1.00  0.00    -0.229 OA
ATOM     44  O   UNL     1      32.460  20.410  -6.599  1.00  0.00    -0.229 OA
BRANCH  39  45
ATOM     45  C   UNL     1      27.857  20.116  -7.410  1.00  0.00     0.095 C
BRANCH  45  46
ATOM     46  S   UNL     1      27.612  21.916  -7.634  1.00  0.00    -0.160 SA
BRANCH  46  47
ATOM     47  C   UNL     1      26.127  22.171  -6.590  1.00  0.00     0.073 C
ATOM     48  G   UNL     1      25.069  21.179  -6.981  1.00  0.00     0.000 C
ENDBRANCH  46  47
ENDBRANCH  45  46
ENDBRANCH  39  45
ENDBRANCH  36  37
ENDBRANCH  10  31
TORSDOF 2
ENDMDL
MODEL 9
REMARK VINA RESULT:      -8.0      1.486      3.122
REMARK SMILES NC(=O)c1cnc2c3c1[nH]c1cc(ccc13)-c1ccc(nn1)N1CCS(=O)(=O)C[C@@H]1CSC[C@@H]1C[C@H]1[C@H](C(F)(F)F)N2
REMARK SMILES IDX 4 1 5 2 6 3 7 4 8 5 9 6 10 7 11 8 12 9 13 10 14 11 15 12
REMARK SMILES IDX 16 13 2 15 1 16 3 17 42 20 37 22 36 23 35 24 34 25 38 27
REMARK SMILES IDX 39 28 40 29 41 30 17 31 18 32 22 33 19 34 21 35 20 36 23 37
REMARK SMILES IDX 24 38 30 39 25 40 29 41 26 42 27 43 28 44 31 45 32 46 33 47
REMARK H PARENT 10 14 1 18 1 19 42 21
REMARK Flexibility Score:   57.900
ROOT
ATOM      1  C   UNL     1      31.221   9.042  -3.684  1.00  0.00     0.082 A
ATOM      2  C   UNL     1      31.029   7.779  -4.233  1.00  0.00     0.129 A
ATOM      3  N   UNL     1      30.154   7.468  -5.229  1.00  0.00    -0.238 NA
ATOM      4  C   UNL     1      29.373   8.442  -5.747  1.00  0.00     0.136 A
ATOM      5  C   UNL     1      29.393   9.719  -5.152  1.00  0.00     0.051 A
ATOM      6  C   UNL     1      30.353  10.017  -4.189  1.00  0.00     0.065 A
ATOM      7  N   UNL     1      30.260  11.372  -3.933  1.00  0.00    -0.354 N
ATOM      8  C   UNL     1      29.252  11.943  -4.676  1.00  0.00     0.047 A
ATOM      9  C   UNL     1      28.873  13.284  -4.856  1.00  0.00     0.037 A
ATOM     10  C   UNL     1      27.781  13.539  -5.701  1.00  0.00     0.004 A
ATOM     11  C   UNL     1      27.032  12.464  -6.221  1.00  0.00     0.011 A
ATOM     12  C   UNL     1      27.442  11.148  -6.061  1.00  0.00     0.012 A
ATOM     13  C   UNL     1      28.613  10.894  -5.337  1.00  0.00     0.011 A
ATOM     14  H   UNL     1      30.885  11.863  -3.303  1.00  0.00     0.167 HD
ENDROOT
BRANCH   1  15
ATOM     15  C   UNL     1      32.224   9.386  -2.655  1.00  0.00     0.252 C
ATOM     16  N   UNL     1      32.253   8.673  -1.492  1.00  0.00    -0.365 N
ATOM     17  O   UNL     1      33.030  10.293  -2.847  1.00  0.00    -0.269 OA
ATOM     18  H   UNL     1      32.958   8.937  -0.814  1.00  0.00     0.159 HD
ATOM     19  H   UNL     1      31.654   7.896  -1.257  1.00  0.00     0.159 HD
ENDBRANCH   1  15
BRANCH   4  20
ATOM     20  N   UNL     1      28.672   8.159  -6.923  1.00  0.00    -0.358 N
ATOM     21  H   UNL     1      28.773   8.946  -7.563  1.00  0.00     0.162 HD
BRANCH  20  22
ATOM     22  C   UNL     1      27.239   7.824  -6.661  1.00  0.00     0.189 C
BRANCH  22  23
ATOM     23  C   UNL     1      27.143   6.331  -6.347  1.00  0.00     0.025 C
ATOM     24  C   UNL     1      25.778   5.727  -6.088  1.00  0.00     0.011 C
ATOM     25  C   UNL     1      26.764   5.807  -4.956  1.00  0.00     0.005 C
ATOM     26  G   UNL     1      27.321   4.530  -4.394  1.00  0.00     0.000 C
ENDBRANCH  22  23
BRANCH  22  27
ATOM     27  C   UNL     1      26.326   8.215  -7.872  1.00  0.00     0.408 C
ATOM     28  F   UNL     1      26.221   7.217  -8.780  1.00  0.00    -0.169 F
ATOM     29  F   UNL     1      26.820   9.301  -8.519  1.00  0.00    -0.169 F
ATOM     30  F   UNL     1      25.065   8.512  -7.482  1.00  0.00    -0.169 F
ENDBRANCH  22  27
ENDBRANCH  20  22
ENDBRANCH   4  20
BRANCH  10  31
ATOM     31  C   UNL     1      27.514  14.856  -6.293  1.00  0.00     0.093 A
ATOM     32  C   UNL     1      28.327  15.380  -7.287  1.00  0.00     0.035 A
ATOM     33  N   UNL     1      26.840  15.668  -5.447  1.00  0.00    -0.148 NA
ATOM     34  C   UNL     1      28.657  16.730  -7.208  1.00  0.00     0.051 A
ATOM     35  N   UNL     1      27.183  16.979  -5.363  1.00  0.00    -0.132 NA
ATOM     36  C   UNL     1      28.168  17.470  -6.139  1.00  0.00     0.151 A
BRANCH  36  37
ATOM     37  N   UNL     1      28.909  18.567  -5.690  1.00  0.00    -0.349 N
ATOM     38  C   UNL     1      29.868  18.281  -4.624  1.00  0.00     0.134 C
ATOM     39  C   UNL     1      29.193  19.611  -6.726  1.00  0.00     0.108 C
ATOM     40  C   UNL     1      31.283  18.433  -5.129  1.00  0.00     0.158 C
ATOM     41  C   UNL     1      29.985  20.744  -6.086  1.00  0.00     0.162 C
ATOM     42  S   UNL     1      31.567  20.140  -5.534  1.00  0.00     0.154 S
ATOM     43  O   UNL     1      31.887  20.830  -4.298  1.00  0.00    -0.229 OA
ATOM     44  O   UNL     1      32.485  20.179  -6.656  1.00  0.00    -0.229 OA
BRANCH  39  45
ATOM     45  C   UNL     1      27.853  20.136  -7.343  1.00  0.00     0.095 C
BRANCH  45  46
ATOM     46  S   UNL     1      27.310  21.787  -6.770  1.00  0.00    -0.160 SA
BRANCH  46  47
ATOM     47  C   UNL     1      25.664  21.880  -7.572  1.00  0.00     0.073 C
ATOM     48  G   UNL     1      24.633  22.254  -6.546  1.00  0.00     0.000 C
ENDBRANCH  46  47
ENDBRANCH  45  46
ENDBRANCH  39  45
ENDBRANCH  36  37
ENDBRANCH  10  31
TORSDOF 2
ENDMDL
