MODEL 1
REMARK VINA RESULT:     -11.3      0.000      0.000
REMARK SMILES CN1CCN2c3ccc(cc3)-c3cnc4cccc(c4n3)-c3cc(F)c(c(F)c3)CN3CCOC[C@@H]3COC[C@H]2C1
REMARK SMILES IDX 22 1 23 2 24 3 25 4 26 5 27 6 28 7 29 8 19 9 12 10 13 11
REMARK SMILES IDX 21 12 14 13 20 14 15 15 16 16 18 17 17 18 9 19 6 20 7 21
REMARK SMILES IDX 11 22 8 23 10 24 5 25 2 26 3 27 41 28 4 29 40 30 1 31 30 33
REMARK SMILES IDX 31 34 32 35 36 36 33 37 35 38 34 39 37 40 38 41 39 42
REMARK H PARENT
REMARK Flexibility Score:   82.900
ROOT
ATOM      1  C   UNL     1      33.133  13.342  -3.477  1.00  0.00    -0.010 A
ATOM      2  C   UNL     1      32.319  12.833  -4.497  1.00  0.00     0.048 A
ATOM      3  C   UNL     1      31.367  13.648  -5.117  1.00  0.00     0.131 A
ATOM      4  F   UNL     1      30.621  13.115  -6.097  1.00  0.00    -0.207 F
ATOM      5  C   UNL     1      31.187  14.981  -4.744  1.00  0.00     0.038 A
ATOM      6  C   UNL     1      32.046  15.495  -3.774  1.00  0.00     0.131 A
ATOM      7  F   UNL     1      31.951  16.782  -3.411  1.00  0.00    -0.207 F
ATOM      8  C   UNL     1      33.002  14.698  -3.143  1.00  0.00     0.048 A
ENDROOT
BRANCH   1   9
ATOM      9  C   UNL     1      34.012  12.454  -2.692  1.00  0.00     0.010 A
ATOM     10  C   UNL     1      32.299   9.301  -3.095  1.00  0.00     0.089 A
ATOM     11  C   UNL     1      33.146   8.454  -2.408  1.00  0.00     0.140 A
ATOM     12  N   UNL     1      32.575  10.623  -3.164  1.00  0.00    -0.244 NA
ATOM     13  N   UNL     1      34.269   8.890  -1.780  1.00  0.00    -0.252 NA
ATOM     14  C   UNL     1      33.691  11.090  -2.578  1.00  0.00     0.097 A
ATOM     15  C   UNL     1      34.543  10.211  -1.872  1.00  0.00     0.089 A
ATOM     16  C   UNL     1      35.686  10.729  -1.278  1.00  0.00     0.030 A
ATOM     17  C   UNL     1      35.178  12.944  -2.088  1.00  0.00     0.011 A
ATOM     18  C   UNL     1      36.009  12.084  -1.377  1.00  0.00     0.003 A
BRANCH  10  19
ATOM     19  C   UNL     1      31.102   8.912  -3.840  1.00  0.00     0.002 A
ATOM     20  C   UNL     1      29.024   8.309  -5.701  1.00  0.00     0.037 A
ATOM     21  C   UNL     1      29.188   9.598  -5.188  1.00  0.00     0.026 A
ATOM     22  C   UNL     1      29.853   7.306  -5.175  1.00  0.00     0.026 A
ATOM     23  C   UNL     1      30.211   9.899  -4.287  1.00  0.00     0.012 A
ATOM     24  C   UNL     1      30.876   7.597  -4.260  1.00  0.00     0.012 A
BRANCH  20  25
ATOM     25  N   UNL     1      28.135   8.048  -6.727  1.00  0.00    -0.364 N
ATOM     26  N   UNL     1      26.499   7.189  -9.087  1.00  0.00    -0.302 NA
ATOM     27  C   UNL     1      27.959   7.419  -9.109  1.00  0.00     0.105 C
ATOM     28  C   UNL     1      25.928   7.478  -7.754  1.00  0.00     0.111 C
ATOM     29  C   UNL     1      28.447   8.479  -8.099  1.00  0.00     0.132 C
ATOM     30  C   UNL     1      26.874   7.267  -6.529  1.00  0.00     0.122 C
ATOM     31  C   UNL     1      26.189   5.829  -9.525  1.00  0.00     0.105 C
ATOM     32  G   UNL     1      26.096   7.681  -5.240  1.00  0.00     0.000 C
ENDBRANCH  20  25
ENDBRANCH  10  19
ENDBRANCH   1   9
BRANCH   5  33
ATOM     33  C   UNL     1      30.156  15.857  -5.404  1.00  0.00     0.126 C
BRANCH  33  34
ATOM     34  N   UNL     1      28.885  15.973  -4.664  1.00  0.00    -0.289 NA
ATOM     35  C   UNL     1      28.029  14.804  -4.987  1.00  0.00     0.114 C
ATOM     36  C   UNL     1      28.114  17.246  -4.829  1.00  0.00     0.108 C
ATOM     37  C   UNL     1      26.533  15.081  -4.804  1.00  0.00     0.175 C
ATOM     38  C   UNL     1      27.051  17.122  -5.952  1.00  0.00     0.181 C
ATOM     39  O   UNL     1      26.071  16.099  -5.699  1.00  0.00    -0.378 OA
BRANCH  36  40
ATOM     40  C   UNL     1      28.915  18.560  -4.971  1.00  0.00     0.181 C
BRANCH  40  41
ATOM     41  O   UNL     1      28.200  19.615  -5.634  1.00  0.00    -0.378 OA
BRANCH  41  42
ATOM     42  C   UNL     1      28.927  20.249  -6.701  1.00  0.00     0.186 C
ATOM     43  G   UNL     1      27.934  20.649  -7.838  1.00  0.00     0.000 C
ENDBRANCH  41  42
ENDBRANCH  40  41
ENDBRANCH  36  40
ENDBRANCH  33  34
ENDBRANCH   5  33
TORSDOF 0
ENDMDL
MODEL 2
REMARK VINA RESULT:     -11.3      0.948      1.069
REMARK SMILES CN1CCN2c3ccc(cc3)-c3cnc4cccc(c4n3)-c3cc(F)c(c(F)c3)CN3CCOC[C@@H]3COC[C@H]2C1
REMARK SMILES IDX 22 1 23 2 24 3 25 4 26 5 27 6 28 7 29 8 19 9 12 10 13 11
REMARK SMILES IDX 21 12 14 13 20 14 15 15 16 16 18 17 17 18 9 19 6 20 7 21
REMARK SMILES IDX 11 22 8 23 10 24 5 25 2 26 3 27 41 28 4 29 40 30 1 31 30 33
REMARK SMILES IDX 31 34 32 35 36 36 33 37 35 38 34 39 37 40 38 41 39 42
REMARK H PARENT
REMARK Flexibility Score:   82.900
ROOT
ATOM      1  C   UNL     1      33.351  13.225  -3.550  1.00  0.00    -0.010 A
ATOM      2  C   UNL     1      32.393  12.725  -4.442  1.00  0.00     0.048 A
ATOM      3  C   UNL     1      31.542  13.596  -5.129  1.00  0.00     0.131 A
ATOM      4  F   UNL     1      30.651  13.067  -5.981  1.00  0.00    -0.207 F
ATOM      5  C   UNL     1      31.606  14.979  -4.950  1.00  0.00     0.038 A
ATOM      6  C   UNL     1      32.605  15.469  -4.110  1.00  0.00     0.131 A
ATOM      7  F   UNL     1      32.745  16.791  -3.937  1.00  0.00    -0.207 F
ATOM      8  C   UNL     1      33.464  14.617  -3.415  1.00  0.00     0.048 A
ENDROOT
BRANCH   1   9
ATOM      9  C   UNL     1      34.131  12.318  -2.686  1.00  0.00     0.010 A
ATOM     10  C   UNL     1      32.250   9.260  -3.067  1.00  0.00     0.089 A
ATOM     11  C   UNL     1      33.005   8.392  -2.304  1.00  0.00     0.140 A
ATOM     12  N   UNL     1      32.610  10.559  -3.169  1.00  0.00    -0.244 NA
ATOM     13  N   UNL     1      34.118   8.785  -1.631  1.00  0.00    -0.252 NA
ATOM     14  C   UNL     1      33.720  10.981  -2.539  1.00  0.00     0.097 A
ATOM     15  C   UNL     1      34.478  10.082  -1.756  1.00  0.00     0.089 A
ATOM     16  C   UNL     1      35.618  10.554  -1.119  1.00  0.00     0.030 A
ATOM     17  C   UNL     1      35.291  12.762  -2.037  1.00  0.00     0.011 A
ATOM     18  C   UNL     1      36.029  11.883  -1.250  1.00  0.00     0.003 A
BRANCH  10  19
ATOM     19  C   UNL     1      31.072   8.913  -3.862  1.00  0.00     0.002 A
ATOM     20  C   UNL     1      29.051   8.392  -5.808  1.00  0.00     0.037 A
ATOM     21  C   UNL     1      29.231   9.669  -5.272  1.00  0.00     0.026 A
ATOM     22  C   UNL     1      29.832   7.360  -5.265  1.00  0.00     0.026 A
ATOM     23  C   UNL     1      30.227   9.930  -4.329  1.00  0.00     0.012 A
ATOM     24  C   UNL     1      30.827   7.611  -4.308  1.00  0.00     0.012 A
BRANCH  20  25
ATOM     25  N   UNL     1      28.195   8.169  -6.870  1.00  0.00    -0.364 N
ATOM     26  N   UNL     1      26.636   7.398  -9.312  1.00  0.00    -0.302 NA
ATOM     27  C   UNL     1      28.095   7.634  -9.280  1.00  0.00     0.105 C
ATOM     28  C   UNL     1      26.023   7.632  -7.986  1.00  0.00     0.111 C
ATOM     29  C   UNL     1      28.546   8.655  -8.214  1.00  0.00     0.132 C
ATOM     30  C   UNL     1      26.932   7.375  -6.742  1.00  0.00     0.122 C
ATOM     31  C   UNL     1      26.347   6.055  -9.813  1.00  0.00     0.105 C
ATOM     32  G   UNL     1      26.114   7.735  -5.462  1.00  0.00     0.000 C
ENDBRANCH  20  25
ENDBRANCH  10  19
ENDBRANCH   1   9
BRANCH   5  33
ATOM     33  C   UNL     1      30.684  15.917  -5.681  1.00  0.00     0.126 C
BRANCH  33  34
ATOM     34  N   UNL     1      29.516  16.364  -4.899  1.00  0.00    -0.289 NA
ATOM     35  C   UNL     1      28.324  15.586  -5.323  1.00  0.00     0.114 C
ATOM     36  C   UNL     1      29.212  17.829  -4.903  1.00  0.00     0.108 C
ATOM     37  C   UNL     1      27.003  16.319  -5.071  1.00  0.00     0.175 C
ATOM     38  C   UNL     1      28.180  18.190  -6.004  1.00  0.00     0.181 C
ATOM     39  O   UNL     1      26.913  17.527  -5.837  1.00  0.00    -0.378 OA
BRANCH  36  40
ATOM     40  C   UNL     1      30.405  18.812  -4.923  1.00  0.00     0.181 C
BRANCH  40  41
ATOM     41  O   UNL     1      30.038  20.185  -4.709  1.00  0.00    -0.378 OA
BRANCH  41  42
ATOM     42  C   UNL     1      31.150  21.072  -4.497  1.00  0.00     0.186 C
ATOM     43  G   UNL     1      31.621  21.649  -5.869  1.00  0.00     0.000 C
ENDBRANCH  41  42
ENDBRANCH  40  41
ENDBRANCH  36  40
ENDBRANCH  33  34
ENDBRANCH   5  33
TORSDOF 0
ENDMDL
MODEL 3
REMARK VINA RESULT:     -11.1      1.020      1.719
REMARK SMILES CN1CCN2c3ccc(cc3)-c3cnc4cccc(c4n3)-c3cc(F)c(c(F)c3)CN3CCOC[C@@H]3COC[C@H]2C1
REMARK SMILES IDX 22 1 23 2 24 3 25 4 26 5 27 6 28 7 29 8 19 9 12 10 13 11
REMARK SMILES IDX 21 12 14 13 20 14 15 15 16 16 18 17 17 18 9 19 6 20 7 21
REMARK SMILES IDX 11 22 8 23 10 24 5 25 2 26 3 27 41 28 4 29 40 30 1 31 30 33
REMARK SMILES IDX 31 34 32 35 36 36 33 37 35 38 34 39 37 40 38 41 39 42
REMARK H PARENT
REMARK Flexibility Score:   82.900
ROOT
ATOM      1  C   UNL     1      33.052  13.348  -3.272  1.00  0.00    -0.010 A
ATOM      2  C   UNL     1      33.207  14.737  -3.173  1.00  0.00     0.048 A
ATOM      3  C   UNL     1      32.449  15.593  -3.977  1.00  0.00     0.131 A
ATOM      4  F   UNL     1      32.627  16.915  -3.835  1.00  0.00    -0.207 F
ATOM      5  C   UNL     1      31.525  15.105  -4.902  1.00  0.00     0.038 A
ATOM      6  C   UNL     1      31.332  13.725  -4.945  1.00  0.00     0.131 A
ATOM      7  F   UNL     1      30.422  13.203  -5.781  1.00  0.00    -0.207 F
ATOM      8  C   UNL     1      32.078  12.854  -4.153  1.00  0.00     0.048 A
ENDROOT
BRANCH   1   9
ATOM      9  C   UNL     1      33.966  12.429  -2.567  1.00  0.00     0.010 A
ATOM     10  C   UNL     1      32.308   9.274  -3.140  1.00  0.00     0.089 A
ATOM     11  C   UNL     1      33.187   8.402  -2.528  1.00  0.00     0.140 A
ATOM     12  N   UNL     1      32.555  10.602  -3.128  1.00  0.00    -0.244 NA
ATOM     13  N   UNL     1      34.315   8.820  -1.897  1.00  0.00    -0.252 NA
ATOM     14  C   UNL     1      33.675  11.054  -2.536  1.00  0.00     0.097 A
ATOM     15  C   UNL     1      34.560  10.149  -1.908  1.00  0.00     0.089 A
ATOM     16  C   UNL     1      35.706  10.651  -1.305  1.00  0.00     0.030 A
ATOM     17  C   UNL     1      35.136  12.904  -1.956  1.00  0.00     0.011 A
ATOM     18  C   UNL     1      36.000  12.017  -1.321  1.00  0.00     0.003 A
BRANCH  10  19
ATOM     19  C   UNL     1      31.103   8.909  -3.884  1.00  0.00     0.002 A
ATOM     20  C   UNL     1      29.015   8.337  -5.743  1.00  0.00     0.037 A
ATOM     21  C   UNL     1      29.217   9.629  -5.253  1.00  0.00     0.026 A
ATOM     22  C   UNL     1      29.809   7.319  -5.195  1.00  0.00     0.026 A
ATOM     23  C   UNL     1      30.245   9.915  -4.353  1.00  0.00     0.012 A
ATOM     24  C   UNL     1      30.837   7.594  -4.281  1.00  0.00     0.012 A
BRANCH  20  25
ATOM     25  N   UNL     1      28.122   8.086  -6.768  1.00  0.00    -0.364 N
ATOM     26  N   UNL     1      26.474   7.241  -9.126  1.00  0.00    -0.302 NA
ATOM     27  C   UNL     1      27.937   7.449  -9.148  1.00  0.00     0.105 C
ATOM     28  C   UNL     1      25.907   7.545  -7.794  1.00  0.00     0.111 C
ATOM     29  C   UNL     1      28.441   8.506  -8.142  1.00  0.00     0.132 C
ATOM     30  C   UNL     1      26.849   7.325  -6.568  1.00  0.00     0.122 C
ATOM     31  C   UNL     1      26.144   5.885  -9.558  1.00  0.00     0.105 C
ATOM     32  G   UNL     1      26.077   7.756  -5.280  1.00  0.00     0.000 C
ENDBRANCH  20  25
ENDBRANCH  10  19
ENDBRANCH   1   9
BRANCH   5  33
ATOM     33  C   UNL     1      30.715  16.025  -5.775  1.00  0.00     0.126 C
BRANCH  33  34
ATOM     34  N   UNL     1      29.500  16.567  -5.136  1.00  0.00    -0.289 NA
ATOM     35  C   UNL     1      28.313  15.860  -5.679  1.00  0.00     0.114 C
ATOM     36  C   UNL     1      29.299  18.049  -5.199  1.00  0.00     0.108 C
ATOM     37  C   UNL     1      27.025  16.684  -5.588  1.00  0.00     0.175 C
ATOM     38  C   UNL     1      28.422  18.450  -6.414  1.00  0.00     0.181 C
ATOM     39  O   UNL     1      27.103  17.876  -6.380  1.00  0.00    -0.378 OA
BRANCH  36  40
ATOM     40  C   UNL     1      30.551  18.951  -5.102  1.00  0.00     0.181 C
BRANCH  40  41
ATOM     41  O   UNL     1      30.313  20.219  -4.471  1.00  0.00    -0.378 OA
BRANCH  41  42
ATOM     42  C   UNL     1      31.408  21.148  -4.568  1.00  0.00     0.186 C
ATOM     43  G   UNL     1      32.178  20.901  -5.904  1.00  0.00     0.000 C
ENDBRANCH  41  42
ENDBRANCH  40  41
ENDBRANCH  36  40
ENDBRANCH  33  34
ENDBRANCH   5  33
TORSDOF 0
ENDMDL
MODEL 4
REMARK VINA RESULT:     -11.0      1.599      2.691
REMARK SMILES CN1CCN2c3ccc(cc3)-c3cnc4cccc(c4n3)-c3cc(F)c(c(F)c3)CN3CCOC[C@@H]3COC[C@H]2C1
REMARK SMILES IDX 22 1 23 2 24 3 25 4 26 5 27 6 28 7 29 8 19 9 12 10 13 11
REMARK SMILES IDX 21 12 14 13 20 14 15 15 16 16 18 17 17 18 9 19 6 20 7 21
REMARK SMILES IDX 11 22 8 23 10 24 5 25 2 26 3 27 41 28 4 29 40 30 1 31 30 33
REMARK SMILES IDX 31 34 32 35 36 36 33 37 35 38 34 39 37 40 38 41 39 42
REMARK H PARENT
REMARK Flexibility Score:   82.900
ROOT
ATOM      1  C   UNL     1      33.017  13.470  -3.266  1.00  0.00    -0.010 A
ATOM      2  C   UNL     1      32.737  14.744  -2.754  1.00  0.00     0.048 A
ATOM      3  C   UNL     1      31.990  15.659  -3.501  1.00  0.00     0.131 A
ATOM      4  F   UNL     1      31.739  16.861  -2.961  1.00  0.00    -0.207 F
ATOM      5  C   UNL     1      31.506  15.347  -4.773  1.00  0.00     0.038 A
ATOM      6  C   UNL     1      31.734  14.055  -5.244  1.00  0.00     0.131 A
ATOM      7  F   UNL     1      31.251  13.684  -6.439  1.00  0.00    -0.207 F
ATOM      8  C   UNL     1      32.478  13.128  -4.515  1.00  0.00     0.048 A
ENDROOT
BRANCH   1   9
ATOM      9  C   UNL     1      33.951  12.562  -2.573  1.00  0.00     0.010 A
ATOM     10  C   UNL     1      32.339   9.384  -3.155  1.00  0.00     0.089 A
ATOM     11  C   UNL     1      33.236   8.522  -2.556  1.00  0.00     0.140 A
ATOM     12  N   UNL     1      32.565  10.717  -3.136  1.00  0.00    -0.244 NA
ATOM     13  N   UNL     1      34.361   8.954  -1.929  1.00  0.00    -0.252 NA
ATOM     14  C   UNL     1      33.682  11.182  -2.549  1.00  0.00     0.097 A
ATOM     15  C   UNL     1      34.586  10.287  -1.934  1.00  0.00     0.089 A
ATOM     16  C   UNL     1      35.728  10.804  -1.336  1.00  0.00     0.030 A
ATOM     17  C   UNL     1      35.117  13.051  -1.968  1.00  0.00     0.011 A
ATOM     18  C   UNL     1      36.000  12.174  -1.345  1.00  0.00     0.003 A
BRANCH  10  19
ATOM     19  C   UNL     1      31.134   9.005  -3.893  1.00  0.00     0.002 A
ATOM     20  C   UNL     1      29.051   8.388  -5.743  1.00  0.00     0.037 A
ATOM     21  C   UNL     1      29.263   9.695  -5.297  1.00  0.00     0.026 A
ATOM     22  C   UNL     1      29.832   7.382  -5.155  1.00  0.00     0.026 A
ATOM     23  C   UNL     1      30.289  10.002  -4.402  1.00  0.00     0.012 A
ATOM     24  C   UNL     1      30.858   7.679  -4.245  1.00  0.00     0.012 A
BRANCH  20  25
ATOM     25  N   UNL     1      28.161   8.110  -6.764  1.00  0.00    -0.364 N
ATOM     26  N   UNL     1      26.555   7.268  -9.151  1.00  0.00    -0.302 NA
ATOM     27  C   UNL     1      27.970   7.695  -9.192  1.00  0.00     0.105 C
ATOM     28  C   UNL     1      26.007   7.347  -7.779  1.00  0.00     0.111 C
ATOM     29  C   UNL     1      28.355   8.709  -8.094  1.00  0.00     0.132 C
ATOM     30  C   UNL     1      27.024   7.149  -6.610  1.00  0.00     0.122 C
ATOM     31  C   UNL     1      26.409   5.927  -9.715  1.00  0.00     0.105 C
ATOM     32  G   UNL     1      26.253   7.328  -5.263  1.00  0.00     0.000 C
ENDBRANCH  20  25
ENDBRANCH  10  19
ENDBRANCH   1   9
BRANCH   5  33
ATOM     33  C   UNL     1      30.709  16.334  -5.583  1.00  0.00     0.126 C
BRANCH  33  34
ATOM     34  N   UNL     1      31.514  17.179  -6.486  1.00  0.00    -0.289 NA
ATOM     35  C   UNL     1      32.899  16.648  -6.537  1.00  0.00     0.114 C
ATOM     36  C   UNL     1      31.528  18.651  -6.212  1.00  0.00     0.108 C
ATOM     37  C   UNL     1      33.940  17.710  -6.908  1.00  0.00     0.175 C
ATOM     38  C   UNL     1      32.736  19.049  -5.324  1.00  0.00     0.181 C
ATOM     39  O   UNL     1      34.009  18.749  -5.924  1.00  0.00    -0.378 OA
BRANCH  36  40
ATOM     40  C   UNL     1      30.224  19.299  -5.692  1.00  0.00     0.181 C
BRANCH  40  41
ATOM     41  O   UNL     1      29.657  20.271  -6.585  1.00  0.00    -0.378 OA
BRANCH  41  42
ATOM     42  C   UNL     1      28.236  20.145  -6.777  1.00  0.00     0.186 C
ATOM     43  G   UNL     1      27.748  18.796  -6.160  1.00  0.00     0.000 C
ENDBRANCH  41  42
ENDBRANCH  40  41
ENDBRANCH  36  40
ENDBRANCH  33  34
ENDBRANCH   5  33
TORSDOF 0
ENDMDL
MODEL 5
REMARK VINA RESULT:     -11.0      1.083      2.292
REMARK SMILES CN1CCN2c3ccc(cc3)-c3cnc4cccc(c4n3)-c3cc(F)c(c(F)c3)CN3CCOC[C@@H]3COC[C@H]2C1
REMARK SMILES IDX 22 1 23 2 24 3 25 4 26 5 27 6 28 7 29 8 19 9 12 10 13 11
REMARK SMILES IDX 21 12 14 13 20 14 15 15 16 16 18 17 17 18 9 19 6 20 7 21
REMARK SMILES IDX 11 22 8 23 10 24 5 25 2 26 3 27 41 28 4 29 40 30 1 31 30 33
REMARK SMILES IDX 31 34 32 35 36 36 33 37 35 38 34 39 37 40 38 41 39 42
REMARK H PARENT
REMARK Flexibility Score:   82.900
ROOT
ATOM      1  C   UNL     1      33.054  13.372  -3.048  1.00  0.00    -0.010 A
ATOM      2  C   UNL     1      32.586  13.149  -4.350  1.00  0.00     0.048 A
ATOM      3  C   UNL     1      31.567  13.944  -4.883  1.00  0.00     0.131 A
ATOM      4  F   UNL     1      31.164  13.697  -6.138  1.00  0.00    -0.207 F
ATOM      5  C   UNL     1      30.978  14.973  -4.146  1.00  0.00     0.038 A
ATOM      6  C   UNL     1      31.496  15.228  -2.877  1.00  0.00     0.131 A
ATOM      7  F   UNL     1      31.000  16.235  -2.143  1.00  0.00    -0.207 F
ATOM      8  C   UNL     1      32.511  14.446  -2.327  1.00  0.00     0.048 A
ENDROOT
BRANCH   1   9
ATOM      9  C   UNL     1      33.997  12.434  -2.409  1.00  0.00     0.010 A
ATOM     10  C   UNL     1      32.379   9.285  -3.114  1.00  0.00     0.089 A
ATOM     11  C   UNL     1      33.284   8.397  -2.565  1.00  0.00     0.140 A
ATOM     12  N   UNL     1      32.605  10.615  -3.037  1.00  0.00    -0.244 NA
ATOM     13  N   UNL     1      34.417   8.801  -1.934  1.00  0.00    -0.252 NA
ATOM     14  C   UNL     1      33.729  11.054  -2.444  1.00  0.00     0.097 A
ATOM     15  C   UNL     1      34.641  10.133  -1.881  1.00  0.00     0.089 A
ATOM     16  C   UNL     1      35.790  10.624  -1.274  1.00  0.00     0.030 A
ATOM     17  C   UNL     1      35.170  12.897  -1.797  1.00  0.00     0.011 A
ATOM     18  C   UNL     1      36.061  11.993  -1.225  1.00  0.00     0.003 A
BRANCH  10  19
ATOM     19  C   UNL     1      31.165   8.937  -3.853  1.00  0.00     0.002 A
ATOM     20  C   UNL     1      29.064   8.391  -5.705  1.00  0.00     0.037 A
ATOM     21  C   UNL     1      29.295   9.684  -5.230  1.00  0.00     0.026 A
ATOM     22  C   UNL     1      29.836   7.361  -5.145  1.00  0.00     0.026 A
ATOM     23  C   UNL     1      30.330   9.957  -4.334  1.00  0.00     0.012 A
ATOM     24  C   UNL     1      30.870   7.624  -4.234  1.00  0.00     0.012 A
BRANCH  20  25
ATOM     25  N   UNL     1      28.165   8.147  -6.727  1.00  0.00    -0.364 N
ATOM     26  N   UNL     1      26.504   7.321  -9.082  1.00  0.00    -0.302 NA
ATOM     27  C   UNL     1      27.967   7.533  -9.111  1.00  0.00     0.105 C
ATOM     28  C   UNL     1      25.945   7.610  -7.743  1.00  0.00     0.111 C
ATOM     29  C   UNL     1      28.474   8.581  -8.098  1.00  0.00     0.132 C
ATOM     30  C   UNL     1      26.895   7.380  -6.525  1.00  0.00     0.122 C
ATOM     31  C   UNL     1      26.174   5.968  -9.525  1.00  0.00     0.105 C
ATOM     32  G   UNL     1      26.131   7.797  -5.229  1.00  0.00     0.000 C
ENDBRANCH  20  25
ENDBRANCH  10  19
ENDBRANCH   1   9
BRANCH   5  33
ATOM     33  C   UNL     1      29.874  15.823  -4.714  1.00  0.00     0.126 C
BRANCH  33  34
ATOM     34  N   UNL     1      30.269  16.654  -5.867  1.00  0.00    -0.289 NA
ATOM     35  C   UNL     1      31.172  17.735  -5.395  1.00  0.00     0.114 C
ATOM     36  C   UNL     1      29.169  17.223  -6.708  1.00  0.00     0.108 C
ATOM     37  C   UNL     1      31.163  18.969  -6.303  1.00  0.00     0.175 C
ATOM     38  C   UNL     1      28.786  18.654  -6.247  1.00  0.00     0.181 C
ATOM     39  O   UNL     1      29.873  19.592  -6.336  1.00  0.00    -0.378 OA
BRANCH  36  40
ATOM     40  C   UNL     1      27.907  16.357  -6.925  1.00  0.00     0.181 C
BRANCH  40  41
ATOM     41  O   UNL     1      28.155  15.122  -7.616  1.00  0.00    -0.378 OA
BRANCH  41  42
ATOM     42  C   UNL     1      27.460  13.986  -7.073  1.00  0.00     0.186 C
ATOM     43  G   UNL     1      26.630  14.433  -5.828  1.00  0.00     0.000 C
ENDBRANCH  41  42
ENDBRANCH  40  41
ENDBRANCH  36  40
ENDBRANCH  33  34
ENDBRANCH   5  33
TORSDOF 0
ENDMDL
MODEL 6
REMARK VINA RESULT:     -11.0      1.336      2.107
REMARK SMILES CN1CCN2c3ccc(cc3)-c3cnc4cccc(c4n3)-c3cc(F)c(c(F)c3)CN3CCOC[C@@H]3COC[C@H]2C1
REMARK SMILES IDX 22 1 23 2 24 3 25 4 26 5 27 6 28 7 29 8 19 9 12 10 13 11
REMARK SMILES IDX 21 12 14 13 20 14 15 15 16 16 18 17 17 18 9 19 6 20 7 21
REMARK SMILES IDX 11 22 8 23 10 24 5 25 2 26 3 27 41 28 4 29 40 30 1 31 30 33
REMARK SMILES IDX 31 34 32 35 36 36 33 37 35 38 34 39 37 40 38 41 39 42
REMARK H PARENT
REMARK Flexibility Score:   82.900
ROOT
ATOM      1  C   UNL     1      33.260  13.323  -3.318  1.00  0.00    -0.010 A
ATOM      2  C   UNL     1      32.534  12.898  -4.438  1.00  0.00     0.048 A
ATOM      3  C   UNL     1      31.607  13.749  -5.046  1.00  0.00     0.131 A
ATOM      4  F   UNL     1      30.945  13.298  -6.122  1.00  0.00    -0.207 F
ATOM      5  C   UNL     1      31.366  15.037  -4.563  1.00  0.00     0.038 A
ATOM      6  C   UNL     1      32.142  15.472  -3.490  1.00  0.00     0.131 A
ATOM      7  F   UNL     1      31.987  16.717  -3.015  1.00  0.00    -0.207 F
ATOM      8  C   UNL     1      33.071  14.638  -2.869  1.00  0.00     0.048 A
ENDROOT
BRANCH   1   9
ATOM      9  C   UNL     1      34.105  12.381  -2.559  1.00  0.00     0.010 A
ATOM     10  C   UNL     1      32.317   9.294  -3.110  1.00  0.00     0.089 A
ATOM     11  C   UNL     1      33.132   8.398  -2.447  1.00  0.00     0.140 A
ATOM     12  N   UNL     1      32.628  10.609  -3.122  1.00  0.00    -0.244 NA
ATOM     13  N   UNL     1      34.257   8.778  -1.787  1.00  0.00    -0.252 NA
ATOM     14  C   UNL     1      33.748  11.023  -2.504  1.00  0.00     0.097 A
ATOM     15  C   UNL     1      34.567  10.094  -1.824  1.00  0.00     0.089 A
ATOM     16  C   UNL     1      35.715  10.557  -1.194  1.00  0.00     0.030 A
ATOM     17  C   UNL     1      35.276  12.816  -1.921  1.00  0.00     0.011 A
ATOM     18  C   UNL     1      36.075  11.907  -1.235  1.00  0.00     0.003 A
BRANCH  10  19
ATOM     19  C   UNL     1      31.121   8.966  -3.885  1.00  0.00     0.002 A
ATOM     20  C   UNL     1      29.067   8.455  -5.799  1.00  0.00     0.037 A
ATOM     21  C   UNL     1      29.303   9.743  -5.314  1.00  0.00     0.026 A
ATOM     22  C   UNL     1      29.808   7.413  -5.220  1.00  0.00     0.026 A
ATOM     23  C   UNL     1      30.315   9.999  -4.387  1.00  0.00     0.012 A
ATOM     24  C   UNL     1      30.818   7.658  -4.279  1.00  0.00     0.012 A
BRANCH  20  25
ATOM     25  N   UNL     1      28.195   8.227  -6.848  1.00  0.00    -0.364 N
ATOM     26  N   UNL     1      26.599   7.442  -9.261  1.00  0.00    -0.302 NA
ATOM     27  C   UNL     1      28.060   7.668  -9.250  1.00  0.00     0.105 C
ATOM     28  C   UNL     1      26.005   7.693  -7.929  1.00  0.00     0.111 C
ATOM     29  C   UNL     1      28.532   8.697  -8.201  1.00  0.00     0.132 C
ATOM     30  C   UNL     1      26.929   7.444  -6.695  1.00  0.00     0.122 C
ATOM     31  C   UNL     1      26.294   6.096  -9.743  1.00  0.00     0.105 C
ATOM     32  G   UNL     1      26.130   7.822  -5.408  1.00  0.00     0.000 C
ENDBRANCH  20  25
ENDBRANCH  10  19
ENDBRANCH   1   9
BRANCH   5  33
ATOM     33  C   UNL     1      30.361  15.951  -5.210  1.00  0.00     0.126 C
BRANCH  33  34
ATOM     34  N   UNL     1      30.927  16.877  -6.210  1.00  0.00    -0.289 NA
ATOM     35  C   UNL     1      32.341  16.505  -6.467  1.00  0.00     0.114 C
ATOM     36  C   UNL     1      30.816  18.342  -5.923  1.00  0.00     0.108 C
ATOM     37  C   UNL     1      33.192  17.675  -6.971  1.00  0.00     0.175 C
ATOM     38  C   UNL     1      32.088  18.878  -5.214  1.00  0.00     0.181 C
ATOM     39  O   UNL     1      33.286  18.720  -5.996  1.00  0.00    -0.378 OA
BRANCH  36  40
ATOM     40  C   UNL     1      29.537  18.843  -5.214  1.00  0.00     0.181 C
BRANCH  40  41
ATOM     41  O   UNL     1      28.954  20.012  -5.811  1.00  0.00    -0.378 OA
BRANCH  41  42
ATOM     42  C   UNL     1      27.934  19.735  -6.788  1.00  0.00     0.186 C
ATOM     43  G   UNL     1      26.931  20.931  -6.842  1.00  0.00     0.000 C
ENDBRANCH  41  42
ENDBRANCH  40  41
ENDBRANCH  36  40
ENDBRANCH  33  34
ENDBRANCH   5  33
TORSDOF 0
ENDMDL
MODEL 7
REMARK VINA RESULT:     -10.9      0.848      1.503
REMARK SMILES CN1CCN2c3ccc(cc3)-c3cnc4cccc(c4n3)-c3cc(F)c(c(F)c3)CN3CCOC[C@@H]3COC[C@H]2C1
REMARK SMILES IDX 22 1 23 2 24 3 25 4 26 5 27 6 28 7 29 8 19 9 12 10 13 11
REMARK SMILES IDX 21 12 14 13 20 14 15 15 16 16 18 17 17 18 9 19 6 20 7 21
REMARK SMILES IDX 11 22 8 23 10 24 5 25 2 26 3 27 41 28 4 29 40 30 1 31 30 33
REMARK SMILES IDX 31 34 32 35 36 36 33 37 35 38 34 39 37 40 38 41 39 42
REMARK H PARENT
REMARK Flexibility Score:   82.900
ROOT
ATOM      1  C   UNL     1      32.985  13.320  -3.696  1.00  0.00    -0.010 A
ATOM      2  C   UNL     1      32.072  12.779  -4.610  1.00  0.00     0.048 A
ATOM      3  C   UNL     1      31.115  13.592  -5.222  1.00  0.00     0.131 A
ATOM      4  F   UNL     1      30.271  13.027  -6.098  1.00  0.00    -0.207 F
ATOM      5  C   UNL     1      31.027  14.958  -4.945  1.00  0.00     0.038 A
ATOM      6  C   UNL     1      31.982  15.498  -4.084  1.00  0.00     0.131 A
ATOM      7  F   UNL     1      31.976  16.813  -3.820  1.00  0.00    -0.207 F
ATOM      8  C   UNL     1      32.945  14.703  -3.463  1.00  0.00     0.048 A
ENDROOT
BRANCH   1   9
ATOM      9  C   UNL     1      33.879  12.449  -2.909  1.00  0.00     0.010 A
ATOM     10  C   UNL     1      32.138   9.298  -3.175  1.00  0.00     0.089 A
ATOM     11  C   UNL     1      32.998   8.465  -2.486  1.00  0.00     0.140 A
ATOM     12  N   UNL     1      32.419  10.615  -3.290  1.00  0.00    -0.244 NA
ATOM     13  N   UNL     1      34.139   8.912  -1.900  1.00  0.00    -0.252 NA
ATOM     14  C   UNL     1      33.553  11.091  -2.746  1.00  0.00     0.097 A
ATOM     15  C   UNL     1      34.418  10.227  -2.038  1.00  0.00     0.089 A
ATOM     16  C   UNL     1      35.580  10.755  -1.489  1.00  0.00     0.030 A
ATOM     17  C   UNL     1      35.064  12.949  -2.350  1.00  0.00     0.011 A
ATOM     18  C   UNL     1      35.908  12.105  -1.636  1.00  0.00     0.003 A
BRANCH  10  19
ATOM     19  C   UNL     1      30.920   8.895  -3.877  1.00  0.00     0.002 A
ATOM     20  C   UNL     1      28.783   8.272  -5.663  1.00  0.00     0.037 A
ATOM     21  C   UNL     1      28.947   9.560  -5.149  1.00  0.00     0.026 A
ATOM     22  C   UNL     1      29.645   7.278  -5.174  1.00  0.00     0.026 A
ATOM     23  C   UNL     1      29.999   9.871  -4.285  1.00  0.00     0.012 A
ATOM     24  C   UNL     1      30.697   7.579  -4.296  1.00  0.00     0.012 A
BRANCH  20  25
ATOM     25  N   UNL     1      27.859   8.003  -6.656  1.00  0.00    -0.364 N
ATOM     26  N   UNL     1      25.617   7.739  -8.628  1.00  0.00    -0.302 NA
ATOM     27  C   UNL     1      25.444   7.922  -7.172  1.00  0.00     0.105 C
ATOM     28  C   UNL     1      27.048   7.659  -8.995  1.00  0.00     0.111 C
ATOM     29  C   UNL     1      26.591   7.336  -6.321  1.00  0.00     0.132 C
ATOM     30  C   UNL     1      28.048   8.431  -8.078  1.00  0.00     0.122 C
ATOM     31  C   UNL     1      24.929   8.800  -9.362  1.00  0.00     0.105 C
ATOM     32  G   UNL     1      29.494   8.167  -8.606  1.00  0.00     0.000 C
ENDBRANCH  20  25
ENDBRANCH  10  19
ENDBRANCH   1   9
BRANCH   5  33
ATOM     33  C   UNL     1      29.991  15.834  -5.595  1.00  0.00     0.126 C
BRANCH  33  34
ATOM     34  N   UNL     1      28.753  16.007  -4.812  1.00  0.00    -0.289 NA
ATOM     35  C   UNL     1      27.955  14.757  -4.887  1.00  0.00     0.114 C
ATOM     36  C   UNL     1      27.898  17.192  -5.139  1.00  0.00     0.108 C
ATOM     37  C   UNL     1      26.456  14.982  -4.666  1.00  0.00     0.175 C
ATOM     38  C   UNL     1      26.791  16.826  -6.162  1.00  0.00     0.181 C
ATOM     39  O   UNL     1      25.889  15.810  -5.688  1.00  0.00    -0.378 OA
BRANCH  36  40
ATOM     40  C   UNL     1      28.609  18.504  -5.542  1.00  0.00     0.181 C
BRANCH  40  41
ATOM     41  O   UNL     1      29.501  19.019  -4.541  1.00  0.00    -0.378 OA
BRANCH  41  42
ATOM     42  C   UNL     1      30.727  19.566  -5.059  1.00  0.00     0.186 C
ATOM     43  G   UNL     1      31.154  20.792  -4.192  1.00  0.00     0.000 C
ENDBRANCH  41  42
ENDBRANCH  40  41
ENDBRANCH  36  40
ENDBRANCH  33  34
ENDBRANCH   5  33
TORSDOF 0
ENDMDL
MODEL 8
REMARK VINA RESULT:     -10.8      1.081      2.569
REMARK SMILES CN1CCN2c3ccc(cc3)-c3cnc4cccc(c4n3)-c3cc(F)c(c(F)c3)CN3CCOC[C@@H]3COC[C@H]2C1
REMARK SMILES IDX 22 1 23 2 24 3 25 4 26 5 27 6 28 7 29 8 19 9 12 10 13 11
REMARK SMILES IDX 21 12 14 13 20 14 15 15 16 16 18 17 17 18 9 19 6 20 7 21
REMARK SMILES IDX 11 22 8 23 10 24 5 25 2 26 3 27 41 28 4 29 40 30 1 31 30 33
REMARK SMILES IDX 31 34 32 35 36 36 33 37 35 38 34 39 37 40 38 41 39 42
REMARK H PARENT
REMARK Flexibility Score:   82.900
ROOT
ATOM      1  C   UNL     1      32.749  13.364  -3.186  1.00  0.00    -0.010 A
ATOM      2  C   UNL     1      32.214  13.121  -4.458  1.00  0.00     0.048 A
ATOM      3  C   UNL     1      31.134  13.874  -4.929  1.00  0.00     0.131 A
ATOM      4  F   UNL     1      30.667  13.608  -6.157  1.00  0.00    -0.207 F
ATOM      5  C   UNL     1      30.550  14.880  -4.158  1.00  0.00     0.038 A
ATOM      6  C   UNL     1      31.132  15.158  -2.921  1.00  0.00     0.131 A
ATOM      7  F   UNL     1      30.643  16.147  -2.159  1.00  0.00    -0.207 F
ATOM      8  C   UNL     1      32.209  14.418  -2.434  1.00  0.00     0.048 A
ENDROOT
BRANCH   1   9
ATOM      9  C   UNL     1      33.764  12.465  -2.604  1.00  0.00     0.010 A
ATOM     10  C   UNL     1      32.225   9.254  -3.199  1.00  0.00     0.089 A
ATOM     11  C   UNL     1      33.194   8.404  -2.706  1.00  0.00     0.140 A
ATOM     12  N   UNL     1      32.405  10.592  -3.140  1.00  0.00    -0.244 NA
ATOM     13  N   UNL     1      34.348   8.853  -2.147  1.00  0.00    -0.252 NA
ATOM     14  C   UNL     1      33.546  11.076  -2.619  1.00  0.00     0.097 A
ATOM     15  C   UNL     1      34.525  10.193  -2.111  1.00  0.00     0.089 A
ATOM     16  C   UNL     1      35.691  10.728  -1.579  1.00  0.00     0.030 A
ATOM     17  C   UNL     1      34.955  12.974  -2.068  1.00  0.00     0.011 A
ATOM     18  C   UNL     1      35.913  12.107  -1.550  1.00  0.00     0.003 A
BRANCH  10  19
ATOM     19  C   UNL     1      30.981   8.859  -3.860  1.00  0.00     0.002 A
ATOM     20  C   UNL     1      28.787   8.235  -5.575  1.00  0.00     0.037 A
ATOM     21  C   UNL     1      28.989   9.531  -5.097  1.00  0.00     0.026 A
ATOM     22  C   UNL     1      29.642   7.237  -5.084  1.00  0.00     0.026 A
ATOM     23  C   UNL     1      30.069   9.843  -4.268  1.00  0.00     0.012 A
ATOM     24  C   UNL     1      30.723   7.538  -4.241  1.00  0.00     0.012 A
BRANCH  20  25
ATOM     25  N   UNL     1      27.833   7.961  -6.537  1.00  0.00    -0.364 N
ATOM     26  N   UNL     1      25.526   7.679  -8.431  1.00  0.00    -0.302 NA
ATOM     27  C   UNL     1      25.403   7.844  -6.968  1.00  0.00     0.105 C
ATOM     28  C   UNL     1      26.944   7.627  -8.850  1.00  0.00     0.111 C
ATOM     29  C   UNL     1      26.589   7.268  -6.165  1.00  0.00     0.132 C
ATOM     30  C   UNL     1      27.964   8.407  -7.960  1.00  0.00     0.122 C
ATOM     31  C   UNL     1      24.795   8.736  -9.128  1.00  0.00     0.105 C
ATOM     32  G   UNL     1      29.393   8.173  -8.543  1.00  0.00     0.000 C
ENDBRANCH  20  25
ENDBRANCH  10  19
ENDBRANCH   1   9
BRANCH   5  33
ATOM     33  C   UNL     1      29.382  15.686  -4.659  1.00  0.00     0.126 C
BRANCH  33  34
ATOM     34  N   UNL     1      29.695  16.592  -5.780  1.00  0.00    -0.289 NA
ATOM     35  C   UNL     1      29.977  17.946  -5.242  1.00  0.00     0.114 C
ATOM     36  C   UNL     1      28.698  16.669  -6.894  1.00  0.00     0.108 C
ATOM     37  C   UNL     1      29.717  19.065  -6.256  1.00  0.00     0.175 C
ATOM     38  C   UNL     1      27.701  17.837  -6.681  1.00  0.00     0.181 C
ATOM     39  O   UNL     1      28.336  19.128  -6.632  1.00  0.00    -0.378 OA
BRANCH  36  40
ATOM     40  C   UNL     1      27.953  15.372  -7.285  1.00  0.00     0.181 C
BRANCH  40  41
ATOM     41  O   UNL     1      26.609  15.295  -6.786  1.00  0.00    -0.378 OA
BRANCH  41  42
ATOM     42  C   UNL     1      26.161  13.961  -6.486  1.00  0.00     0.186 C
ATOM     43  G   UNL     1      27.400  13.032  -6.282  1.00  0.00     0.000 C
ENDBRANCH  41  42
ENDBRANCH  40  41
ENDBRANCH  36  40
ENDBRANCH  33  34
ENDBRANCH   5  33
TORSDOF 0
ENDMDL
MODEL 9
REMARK VINA RESULT:     -10.7      1.298      1.982
REMARK SMILES CN1CCN2c3ccc(cc3)-c3cnc4cccc(c4n3)-c3cc(F)c(c(F)c3)CN3CCOC[C@@H]3COC[C@H]2C1
REMARK SMILES IDX 22 1 23 2 24 3 25 4 26 5 27 6 28 7 29 8 19 9 12 10 13 11
REMARK SMILES IDX 21 12 14 13 20 14 15 15 16 16 18 17 17 18 9 19 6 20 7 21
REMARK SMILES IDX 11 22 8 23 10 24 5 25 2 26 3 27 41 28 4 29 40 30 1 31 30 33
REMARK SMILES IDX 31 34 32 35 36 36 33 37 35 38 34 39 37 40 38 41 39 42
REMARK H PARENT
REMARK Flexibility Score:   82.900
ROOT
ATOM      1  C   UNL     1      33.260  13.227  -3.676  1.00  0.00    -0.010 A
ATOM      2  C   UNL     1      32.254  12.735  -4.518  1.00  0.00     0.048 A
ATOM      3  C   UNL     1      31.461  13.612  -5.262  1.00  0.00     0.131 A
ATOM      4  F   UNL     1      30.519  13.089  -6.061  1.00  0.00    -0.207 F
ATOM      5  C   UNL     1      31.632  14.996  -5.192  1.00  0.00     0.038 A
ATOM      6  C   UNL     1      32.678  15.471  -4.402  1.00  0.00     0.131 A
ATOM      7  F   UNL     1      32.920  16.788  -4.335  1.00  0.00    -0.207 F
ATOM      8  C   UNL     1      33.481  14.612  -3.651  1.00  0.00     0.048 A
ENDROOT
BRANCH   1   9
ATOM      9  C   UNL     1      33.983  12.332  -2.751  1.00  0.00     0.010 A
ATOM     10  C   UNL     1      32.233   9.228  -3.331  1.00  0.00     0.089 A
ATOM     11  C   UNL     1      32.940   8.372  -2.509  1.00  0.00     0.140 A
ATOM     12  N   UNL     1      32.564  10.537  -3.388  1.00  0.00    -0.244 NA
ATOM     13  N   UNL     1      33.974   8.788  -1.732  1.00  0.00    -0.252 NA
ATOM     14  C   UNL     1      33.599  10.983  -2.655  1.00  0.00     0.097 A
ATOM     15  C   UNL     1      34.307  10.096  -1.813  1.00  0.00     0.089 A
ATOM     16  C   UNL     1      35.369  10.592  -1.069  1.00  0.00     0.030 A
ATOM     17  C   UNL     1      35.066  12.800  -1.994  1.00  0.00     0.011 A
ATOM     18  C   UNL     1      35.752  11.933  -1.150  1.00  0.00     0.003 A
BRANCH  10  19
ATOM     19  C   UNL     1      31.145   8.858  -4.235  1.00  0.00     0.002 A
ATOM     20  C   UNL     1      28.778   7.995  -5.576  1.00  0.00     0.037 A
ATOM     21  C   UNL     1      29.779   7.091  -5.216  1.00  0.00     0.026 A
ATOM     22  C   UNL     1      29.040   9.356  -5.350  1.00  0.00     0.026 A
ATOM     23  C   UNL     1      30.932   7.507  -4.549  1.00  0.00     0.012 A
ATOM     24  C   UNL     1      30.202   9.785  -4.691  1.00  0.00     0.012 A
BRANCH  20  25
ATOM     25  N   UNL     1      27.559   7.566  -6.069  1.00  0.00    -0.364 N
ATOM     26  N   UNL     1      24.741   6.930  -6.867  1.00  0.00    -0.302 NA
ATOM     27  C   UNL     1      25.193   7.169  -5.480  1.00  0.00     0.105 C
ATOM     28  C   UNL     1      25.869   7.002  -7.822  1.00  0.00     0.111 C
ATOM     29  C   UNL     1      26.661   6.770  -5.217  1.00  0.00     0.132 C
ATOM     30  C   UNL     1      27.057   7.936  -7.429  1.00  0.00     0.122 C
ATOM     31  C   UNL     1      23.671   7.860  -7.223  1.00  0.00     0.105 C
ATOM     32  G   UNL     1      28.152   7.819  -8.536  1.00  0.00     0.000 C
ENDBRANCH  20  25
ENDBRANCH  10  19
ENDBRANCH   1   9
BRANCH   5  33
ATOM     33  C   UNL     1      30.772  15.943  -5.985  1.00  0.00     0.126 C
BRANCH  33  34
ATOM     34  N   UNL     1      29.731  16.632  -5.199  1.00  0.00    -0.289 NA
ATOM     35  C   UNL     1      28.514  15.783  -5.161  1.00  0.00     0.114 C
ATOM     36  C   UNL     1      29.381  18.029  -5.608  1.00  0.00     0.108 C
ATOM     37  C   UNL     1      27.226  16.582  -4.936  1.00  0.00     0.175 C
ATOM     38  C   UNL     1      28.173  18.048  -6.581  1.00  0.00     0.181 C
ATOM     39  O   UNL     1      26.973  17.493  -6.012  1.00  0.00    -0.378 OA
BRANCH  36  40
ATOM     40  C   UNL     1      30.521  18.935  -6.126  1.00  0.00     0.181 C
BRANCH  40  41
ATOM     41  O   UNL     1      31.098  19.784  -5.121  1.00  0.00    -0.378 OA
BRANCH  41  42
ATOM     42  C   UNL     1      31.167  21.175  -5.484  1.00  0.00     0.186 C
ATOM     43  G   UNL     1      31.940  21.961  -4.378  1.00  0.00     0.000 C
ENDBRANCH  41  42
ENDBRANCH  40  41
ENDBRANCH  36  40
ENDBRANCH  33  34
ENDBRANCH   5  33
TORSDOF 0
ENDMDL
