MODEL 1
REMARK VINA RESULT:      -8.9      0.000      0.000
REMARK SMILES CC(C)(C)[C@H]1NC(=O)c2c[nH]c3ncc(nc23)C2(CC2)CNC[C@H]2[C@@H](C#N)CN2C1=O
REMARK SMILES IDX 9 1 10 2 11 3 12 4 13 5 14 6 15 7 16 8 17 9 7 11 6 12 8 13
REMARK SMILES IDX 5 15 2 16 1 17 3 18 4 19 30 20 31 21 29 22 28 23 24 24 25 25
REMARK SMILES IDX 26 26 27 27 18 29 19 30 20 31 21 32 22 33 23 35
REMARK H PARENT 11 10 6 14 22 34
REMARK Flexibility Score:  106.900
ROOT
ATOM      1  C   UNL     1      34.749  12.147  -2.367  1.00  0.00     0.085 A
ATOM      2  C   UNL     1      35.715  11.721  -1.467  1.00  0.00     0.100 A
ATOM      3  N   UNL     1      35.534  10.373  -1.237  1.00  0.00    -0.344 N
ATOM      4  C   UNL     1      34.446   9.931  -1.936  1.00  0.00     0.156 A
ATOM      5  N   UNL     1      33.894   8.701  -1.892  1.00  0.00    -0.235 NA
ATOM      6  C   UNL     1      32.759   8.661  -2.652  1.00  0.00     0.138 A
ATOM      7  C   UNL     1      32.244   9.714  -3.426  1.00  0.00     0.067 A
ATOM      8  N   UNL     1      32.896  10.899  -3.491  1.00  0.00    -0.246 NA
ATOM      9  C   UNL     1      33.979  10.999  -2.681  1.00  0.00     0.120 A
ATOM     10  H   UNL     1      36.072   9.797  -0.605  1.00  0.00     0.168 HD
ENDROOT
BRANCH   1  11
ATOM     11  C   UNL     1      34.501  13.515  -2.822  1.00  0.00     0.255 C
ATOM     12  N   UNL     1      33.234  13.694  -3.307  1.00  0.00    -0.340 N
ATOM     13  O   UNL     1      35.347  14.389  -2.707  1.00  0.00    -0.269 OA
ATOM     14  H   UNL     1      32.658  12.852  -3.281  1.00  0.00     0.164 HD
BRANCH  12  15
ATOM     15  C   UNL     1      32.422  14.886  -3.563  1.00  0.00     0.177 C
BRANCH  15  16
ATOM     16  C   UNL     1      31.036  15.103  -2.877  1.00  0.00    -0.009 C
ATOM     17  C   UNL     1      31.194  15.227  -1.347  1.00  0.00     0.013 C
ATOM     18  C   UNL     1      29.984  14.035  -3.208  1.00  0.00     0.013 C
ATOM     19  C   UNL     1      30.450  16.457  -3.363  1.00  0.00     0.013 C
ENDBRANCH  15  16
BRANCH  15  20
ATOM     20  C   UNL     1      32.498  15.237  -5.075  1.00  0.00     0.246 C
ATOM     21  O   UNL     1      32.194  14.392  -5.926  1.00  0.00    -0.272 OA
BRANCH  20  22
ATOM     22  N   UNL     1      32.954  16.460  -5.467  1.00  0.00    -0.334 N
ATOM     23  C   UNL     1      33.961  17.410  -5.049  1.00  0.00     0.141 C
ATOM     24  C   UNL     1      32.570  17.247  -6.647  1.00  0.00     0.118 C
ATOM     25  C   UNL     1      34.011  17.820  -6.541  1.00  0.00     0.136 C
ATOM     26  C   UNL     1      34.180  19.227  -6.805  1.00  0.00     0.070 C
ATOM     27  N   UNL     1      34.300  20.359  -7.026  1.00  0.00    -0.198 NA
ATOM     28  G   UNL     1      31.371  18.190  -6.384  1.00  0.00     0.000 C
ENDBRANCH  20  22
ENDBRANCH  15  20
ENDBRANCH  12  15
ENDBRANCH   1  11
BRANCH   7  29
ATOM     29  C   UNL     1      30.906   9.617  -4.160  1.00  0.00     0.027 C
ATOM     30  C   UNL     1      30.422  10.802  -4.985  1.00  0.00     0.016 C
ATOM     31  C   UNL     1      29.766  10.502  -3.672  1.00  0.00     0.016 C
BRANCH  29  32
ATOM     32  C   UNL     1      30.554   8.210  -4.635  1.00  0.00     0.094 C
BRANCH  32  33
ATOM     33  N   UNL     1      29.825   8.293  -5.897  1.00  0.00    -0.314 NA
ATOM     34  H   UNL     1      30.385   7.950  -6.678  1.00  0.00     0.122 HD
BRANCH  33  35
ATOM     35  C   UNL     1      28.509   7.660  -5.850  1.00  0.00     0.107 C
ATOM     36  G   UNL     1      28.428   6.395  -6.738  1.00  0.00     0.000 C
ENDBRANCH  33  35
ENDBRANCH  32  33
ENDBRANCH  29  32
ENDBRANCH   7  29
TORSDOF 1
ENDMDL
MODEL 2
REMARK VINA RESULT:      -8.5      2.528      4.060
REMARK SMILES CC(C)(C)[C@H]1NC(=O)c2c[nH]c3ncc(nc23)C2(CC2)CNC[C@H]2[C@@H](C#N)CN2C1=O
REMARK SMILES IDX 9 1 10 2 11 3 12 4 13 5 14 6 15 7 16 8 17 9 7 11 6 12 8 13
REMARK SMILES IDX 5 15 2 16 1 17 3 18 4 19 30 20 31 21 29 22 28 23 24 24 25 25
REMARK SMILES IDX 26 26 27 27 18 29 19 30 20 31 21 32 22 33 23 35
REMARK H PARENT 11 10 6 14 22 34
REMARK Flexibility Score:  106.900
ROOT
ATOM      1  C   UNL     1      33.956  13.277  -3.015  1.00  0.00     0.085 A
ATOM      2  C   UNL     1      35.159  13.276  -2.323  1.00  0.00     0.100 A
ATOM      3  N   UNL     1      35.497  11.972  -2.033  1.00  0.00    -0.344 N
ATOM      4  C   UNL     1      34.515  11.133  -2.484  1.00  0.00     0.156 A
ATOM      5  N   UNL     1      34.437   9.799  -2.301  1.00  0.00    -0.235 NA
ATOM      6  C   UNL     1      33.263   9.318  -2.810  1.00  0.00     0.138 A
ATOM      7  C   UNL     1      32.285  10.067  -3.485  1.00  0.00     0.067 A
ATOM      8  N   UNL     1      32.468  11.389  -3.707  1.00  0.00    -0.246 NA
ATOM      9  C   UNL     1      33.581  11.915  -3.139  1.00  0.00     0.120 A
ATOM     10  H   UNL     1      36.307  11.665  -1.512  1.00  0.00     0.168 HD
ENDROOT
BRANCH   1  11
ATOM     11  C   UNL     1      33.175  14.438  -3.438  1.00  0.00     0.255 C
ATOM     12  N   UNL     1      32.386  14.183  -4.527  1.00  0.00    -0.340 N
ATOM     13  O   UNL     1      33.210  15.491  -2.819  1.00  0.00    -0.269 OA
ATOM     14  H   UNL     1      32.463  13.227  -4.879  1.00  0.00     0.164 HD
BRANCH  12  15
ATOM     15  C   UNL     1      31.232  14.872  -5.107  1.00  0.00     0.177 C
BRANCH  15  16
ATOM     16  C   UNL     1      31.303  16.366  -5.557  1.00  0.00    -0.009 C
ATOM     17  C   UNL     1      31.064  17.311  -4.361  1.00  0.00     0.013 C
ATOM     18  C   UNL     1      30.358  16.732  -6.709  1.00  0.00     0.013 C
ATOM     19  C   UNL     1      32.742  16.661  -6.062  1.00  0.00     0.013 C
ENDBRANCH  15  16
BRANCH  15  20
ATOM     20  C   UNL     1      29.949  14.452  -4.336  1.00  0.00     0.246 C
ATOM     21  O   UNL     1      30.010  14.176  -3.131  1.00  0.00    -0.272 OA
BRANCH  20  22
ATOM     22  N   UNL     1      28.765  14.332  -5.000  1.00  0.00    -0.334 N
ATOM     23  C   UNL     1      28.263  13.658  -6.177  1.00  0.00     0.141 C
ATOM     24  C   UNL     1      27.443  14.848  -4.618  1.00  0.00     0.118 C
ATOM     25  C   UNL     1      26.908  13.634  -5.427  1.00  0.00     0.136 C
ATOM     26  C   UNL     1      25.734  13.849  -6.236  1.00  0.00     0.070 C
ATOM     27  N   UNL     1      24.786  14.037  -6.876  1.00  0.00    -0.198 NA
ATOM     28  G   UNL     1      27.172  16.277  -5.149  1.00  0.00     0.000 C
ENDBRANCH  20  22
ENDBRANCH  15  20
ENDBRANCH  12  15
ENDBRANCH   1  11
BRANCH   7  29
ATOM     29  C   UNL     1      30.949   9.467  -3.926  1.00  0.00     0.027 C
ATOM     30  C   UNL     1      30.269  10.005  -5.177  1.00  0.00     0.016 C
ATOM     31  C   UNL     1      29.712  10.350  -3.830  1.00  0.00     0.016 C
BRANCH  29  32
ATOM     32  C   UNL     1      30.787   7.987  -3.591  1.00  0.00     0.094 C
BRANCH  32  33
ATOM     33  N   UNL     1      30.843   7.203  -4.822  1.00  0.00    -0.314 NA
ATOM     34  H   UNL     1      31.719   6.686  -4.899  1.00  0.00     0.122 HD
BRANCH  33  35
ATOM     35  C   UNL     1      29.680   6.340  -5.014  1.00  0.00     0.107 C
ATOM     36  G   UNL     1      28.893   6.684  -6.301  1.00  0.00     0.000 C
ENDBRANCH  33  35
ENDBRANCH  32  33
ENDBRANCH  29  32
ENDBRANCH   7  29
TORSDOF 1
ENDMDL
MODEL 3
REMARK VINA RESULT:      -8.5      0.612      1.267
REMARK SMILES CC(C)(C)[C@H]1NC(=O)c2c[nH]c3ncc(nc23)C2(CC2)CNC[C@H]2[C@@H](C#N)CN2C1=O
REMARK SMILES IDX 9 1 10 2 11 3 12 4 13 5 14 6 15 7 16 8 17 9 7 11 6 12 8 13
REMARK SMILES IDX 5 15 2 16 1 17 3 18 4 19 30 20 31 21 29 22 28 23 24 24 25 25
REMARK SMILES IDX 26 26 27 27 18 29 19 30 20 31 21 32 22 33 23 35
REMARK H PARENT 11 10 6 14 22 34
REMARK Flexibility Score:  106.900
ROOT
ATOM      1  C   UNL     1      34.720  12.279  -2.440  1.00  0.00     0.085 A
ATOM      2  C   UNL     1      35.697  11.836  -1.560  1.00  0.00     0.100 A
ATOM      3  N   UNL     1      35.520  10.485  -1.352  1.00  0.00    -0.344 N
ATOM      4  C   UNL     1      34.423  10.054  -2.045  1.00  0.00     0.156 A
ATOM      5  N   UNL     1      33.873   8.824  -2.016  1.00  0.00    -0.235 NA
ATOM      6  C   UNL     1      32.728   8.797  -2.762  1.00  0.00     0.138 A
ATOM      7  C   UNL     1      32.203   9.863  -3.511  1.00  0.00     0.067 A
ATOM      8  N   UNL     1      32.853  11.049  -3.562  1.00  0.00    -0.246 NA
ATOM      9  C   UNL     1      33.946  11.136  -2.765  1.00  0.00     0.120 A
ATOM     10  H   UNL     1      36.066   9.898  -0.737  1.00  0.00     0.168 HD
ENDROOT
BRANCH   1  11
ATOM     11  C   UNL     1      34.466  13.654  -2.867  1.00  0.00     0.255 C
ATOM     12  N   UNL     1      33.184  13.848  -3.307  1.00  0.00    -0.340 N
ATOM     13  O   UNL     1      35.320  14.522  -2.767  1.00  0.00    -0.269 OA
ATOM     14  H   UNL     1      32.604  13.008  -3.275  1.00  0.00     0.164 HD
BRANCH  12  15
ATOM     15  C   UNL     1      32.372  15.047  -3.520  1.00  0.00     0.177 C
BRANCH  15  16
ATOM     16  C   UNL     1      31.017  15.269  -2.775  1.00  0.00    -0.009 C
ATOM     17  C   UNL     1      30.391  16.624  -3.167  1.00  0.00     0.013 C
ATOM     18  C   UNL     1      31.103  15.157  -1.246  1.00  0.00     0.013 C
ATOM     19  C   UNL     1      30.015  14.177  -3.236  1.00  0.00     0.013 C
ENDBRANCH  15  16
BRANCH  15  20
ATOM     20  C   UNL     1      32.388  15.410  -5.031  1.00  0.00     0.246 C
ATOM     21  O   UNL     1      32.355  14.516  -5.886  1.00  0.00    -0.272 OA
BRANCH  20  22
ATOM     22  N   UNL     1      32.494  16.713  -5.417  1.00  0.00    -0.334 N
ATOM     23  C   UNL     1      31.618  17.765  -5.881  1.00  0.00     0.141 C
ATOM     24  C   UNL     1      33.677  17.585  -5.386  1.00  0.00     0.118 C
ATOM     25  C   UNL     1      32.637  18.729  -5.224  1.00  0.00     0.136 C
ATOM     26  C   UNL     1      32.894  19.957  -5.932  1.00  0.00     0.070 C
ATOM     27  N   UNL     1      33.119  20.940  -6.504  1.00  0.00    -0.198 NA
ATOM     28  G   UNL     1      34.515  17.518  -6.686  1.00  0.00     0.000 C
ENDBRANCH  20  22
ENDBRANCH  15  20
ENDBRANCH  12  15
ENDBRANCH   1  11
BRANCH   7  29
ATOM     29  C   UNL     1      30.856   9.779  -4.230  1.00  0.00     0.027 C
ATOM     30  C   UNL     1      30.347  10.988  -5.001  1.00  0.00     0.016 C
ATOM     31  C   UNL     1      29.713  10.630  -3.692  1.00  0.00     0.016 C
BRANCH  29  32
ATOM     32  C   UNL     1      30.513   8.387  -4.754  1.00  0.00     0.094 C
BRANCH  32  33
ATOM     33  N   UNL     1      29.671   8.510  -5.941  1.00  0.00    -0.314 NA
ATOM     34  H   UNL     1      30.228   8.534  -6.795  1.00  0.00     0.122 HD
BRANCH  33  35
ATOM     35  C   UNL     1      28.612   7.506  -6.007  1.00  0.00     0.107 C
ATOM     36  G   UNL     1      27.199   8.128  -5.888  1.00  0.00     0.000 C
ENDBRANCH  33  35
ENDBRANCH  32  33
ENDBRANCH  29  32
ENDBRANCH   7  29
TORSDOF 1
ENDMDL
MODEL 4
REMARK VINA RESULT:      -8.4      1.058      1.432
REMARK SMILES CC(C)(C)[C@H]1NC(=O)c2c[nH]c3ncc(nc23)C2(CC2)CNC[C@H]2[C@@H](C#N)CN2C1=O
REMARK SMILES IDX 9 1 10 2 11 3 12 4 13 5 14 6 15 7 16 8 17 9 7 11 6 12 8 13
REMARK SMILES IDX 5 15 2 16 1 17 3 18 4 19 30 20 31 21 29 22 28 23 24 24 25 25
REMARK SMILES IDX 26 26 27 27 18 29 19 30 20 31 21 32 22 33 23 35
REMARK H PARENT 11 10 6 14 22 34
REMARK Flexibility Score:  106.900
ROOT
ATOM      1  C   UNL     1      34.274  12.640  -2.768  1.00  0.00     0.085 A
ATOM      2  C   UNL     1      35.298  12.198  -1.942  1.00  0.00     0.100 A
ATOM      3  N   UNL     1      35.168  10.836  -1.773  1.00  0.00    -0.344 N
ATOM      4  C   UNL     1      34.056  10.396  -2.438  1.00  0.00     0.156 A
ATOM      5  N   UNL     1      33.543   9.150  -2.429  1.00  0.00    -0.235 NA
ATOM      6  C   UNL     1      32.370   9.113  -3.130  1.00  0.00     0.138 A
ATOM      7  C   UNL     1      31.786  10.187  -3.821  1.00  0.00     0.067 A
ATOM      8  N   UNL     1      32.400  11.393  -3.858  1.00  0.00    -0.246 NA
ATOM      9  C   UNL     1      33.521  11.486  -3.101  1.00  0.00     0.120 A
ATOM     10  H   UNL     1      35.754  10.245  -1.200  1.00  0.00     0.168 HD
ENDROOT
BRANCH   1  11
ATOM     11  C   UNL     1      33.964  14.021  -3.137  1.00  0.00     0.255 C
ATOM     12  N   UNL     1      32.827  14.128  -3.891  1.00  0.00    -0.340 N
ATOM     13  O   UNL     1      34.645  14.955  -2.742  1.00  0.00    -0.269 OA
ATOM     14  H   UNL     1      32.372  13.235  -4.083  1.00  0.00     0.164 HD
BRANCH  12  15
ATOM     15  C   UNL     1      31.951  15.254  -4.220  1.00  0.00     0.177 C
BRANCH  15  16
ATOM     16  C   UNL     1      30.420  15.226  -3.910  1.00  0.00    -0.009 C
ATOM     17  C   UNL     1      30.103  14.200  -2.803  1.00  0.00     0.013 C
ATOM     18  C   UNL     1      29.525  14.968  -5.131  1.00  0.00     0.013 C
ATOM     19  C   UNL     1      30.003  16.613  -3.350  1.00  0.00     0.013 C
ENDBRANCH  15  16
BRANCH  15  20
ATOM     20  C   UNL     1      32.356  15.826  -5.607  1.00  0.00     0.246 C
ATOM     21  O   UNL     1      32.683  15.062  -6.523  1.00  0.00    -0.272 OA
BRANCH  20  22
ATOM     22  N   UNL     1      32.406  17.174  -5.799  1.00  0.00    -0.334 N
ATOM     23  C   UNL     1      31.503  18.231  -6.197  1.00  0.00     0.141 C
ATOM     24  C   UNL     1      33.518  18.098  -5.535  1.00  0.00     0.118 C
ATOM     25  C   UNL     1      32.391  19.147  -5.320  1.00  0.00     0.136 C
ATOM     26  C   UNL     1      32.624  20.476  -5.825  1.00  0.00     0.070 C
ATOM     27  N   UNL     1      32.829  21.542  -6.233  1.00  0.00    -0.198 NA
ATOM     28  G   UNL     1      34.469  18.264  -6.745  1.00  0.00     0.000 C
ENDBRANCH  20  22
ENDBRANCH  15  20
ENDBRANCH  12  15
ENDBRANCH   1  11
BRANCH   7  29
ATOM     29  C   UNL     1      30.414  10.087  -4.490  1.00  0.00     0.027 C
ATOM     30  C   UNL     1      29.821  11.318  -5.160  1.00  0.00     0.016 C
ATOM     31  C   UNL     1      29.259  10.849  -3.852  1.00  0.00     0.016 C
BRANCH  29  32
ATOM     32  C   UNL     1      30.109   8.716  -5.088  1.00  0.00     0.094 C
BRANCH  32  33
ATOM     33  N   UNL     1      29.618   8.883  -6.454  1.00  0.00    -0.314 NA
ATOM     34  H   UNL     1      30.358   8.737  -7.140  1.00  0.00     0.122 HD
BRANCH  33  35
ATOM     35  C   UNL     1      28.435   8.077  -6.747  1.00  0.00     0.107 C
ATOM     36  G   UNL     1      27.275   8.348  -5.758  1.00  0.00     0.000 C
ENDBRANCH  33  35
ENDBRANCH  32  33
ENDBRANCH  29  32
ENDBRANCH   7  29
TORSDOF 1
ENDMDL
MODEL 5
REMARK VINA RESULT:      -8.3      1.396      1.934
REMARK SMILES CC(C)(C)[C@H]1NC(=O)c2c[nH]c3ncc(nc23)C2(CC2)CNC[C@H]2[C@@H](C#N)CN2C1=O
REMARK SMILES IDX 9 1 10 2 11 3 12 4 13 5 14 6 15 7 16 8 17 9 7 11 6 12 8 13
REMARK SMILES IDX 5 15 2 16 1 17 3 18 4 19 30 20 31 21 29 22 28 23 24 24 25 25
REMARK SMILES IDX 26 26 27 27 18 29 19 30 20 31 21 32 22 33 23 35
REMARK H PARENT 11 10 6 14 22 34
REMARK Flexibility Score:  106.900
ROOT
ATOM      1  C   UNL     1      33.924  11.499  -2.792  1.00  0.00     0.085 A
ATOM      2  C   UNL     1      34.761  10.822  -1.915  1.00  0.00     0.100 A
ATOM      3  N   UNL     1      34.360   9.504  -1.857  1.00  0.00    -0.344 N
ATOM      4  C   UNL     1      33.256   9.325  -2.643  1.00  0.00     0.156 A
ATOM      5  N   UNL     1      32.518   8.204  -2.768  1.00  0.00    -0.235 NA
ATOM      6  C   UNL     1      31.434   8.434  -3.568  1.00  0.00     0.138 A
ATOM      7  C   UNL     1      31.132   9.637  -4.227  1.00  0.00     0.067 A
ATOM      8  N   UNL     1      31.963  10.701  -4.124  1.00  0.00    -0.246 NA
ATOM      9  C   UNL     1      33.003  10.533  -3.270  1.00  0.00     0.120 A
ATOM     10  H   UNL     1      34.766   8.780  -1.280  1.00  0.00     0.168 HD
ENDROOT
BRANCH   1  11
ATOM     11  C   UNL     1      33.917  12.931  -3.086  1.00  0.00     0.255 C
ATOM     12  N   UNL     1      32.726  13.364  -3.603  1.00  0.00    -0.340 N
ATOM     13  O   UNL     1      34.877  13.641  -2.825  1.00  0.00    -0.269 OA
ATOM     14  H   UNL     1      32.028  12.626  -3.708  1.00  0.00     0.164 HD
BRANCH  12  15
ATOM     15  C   UNL     1      32.124  14.691  -3.748  1.00  0.00     0.177 C
BRANCH  15  16
ATOM     16  C   UNL     1      30.821  15.093  -2.988  1.00  0.00    -0.009 C
ATOM     17  C   UNL     1      31.111  15.338  -1.492  1.00  0.00     0.013 C
ATOM     18  C   UNL     1      29.661  14.099  -3.138  1.00  0.00     0.013 C
ATOM     19  C   UNL     1      30.313  16.445  -3.558  1.00  0.00     0.013 C
ENDBRANCH  15  16
BRANCH  15  20
ATOM     20  C   UNL     1      32.208  15.126  -5.238  1.00  0.00     0.246 C
ATOM     21  O   UNL     1      31.856  14.349  -6.134  1.00  0.00    -0.272 OA
BRANCH  20  22
ATOM     22  N   UNL     1      32.722  16.346  -5.562  1.00  0.00    -0.334 N
ATOM     23  C   UNL     1      33.775  17.220  -5.095  1.00  0.00     0.141 C
ATOM     24  C   UNL     1      32.374  17.218  -6.693  1.00  0.00     0.118 C
ATOM     25  C   UNL     1      33.841  17.713  -6.562  1.00  0.00     0.136 C
ATOM     26  C   UNL     1      34.079  19.122  -6.746  1.00  0.00     0.070 C
ATOM     27  N   UNL     1      34.253  20.258  -6.902  1.00  0.00    -0.198 NA
ATOM     28  G   UNL     1      31.223  18.201  -6.370  1.00  0.00     0.000 C
ENDBRANCH  20  22
ENDBRANCH  15  20
ENDBRANCH  12  15
ENDBRANCH   1  11
BRANCH   7  29
ATOM     29  C   UNL     1      29.838   9.842  -5.015  1.00  0.00     0.027 C
ATOM     30  C   UNL     1      28.781   8.746  -5.007  1.00  0.00     0.016 C
ATOM     31  C   UNL     1      29.608   8.963  -6.238  1.00  0.00     0.016 C
BRANCH  29  32
ATOM     32  C   UNL     1      29.377  11.294  -5.094  1.00  0.00     0.094 C
BRANCH  32  33
ATOM     33  N   UNL     1      27.964  11.374  -4.734  1.00  0.00    -0.314 NA
ATOM     34  H   UNL     1      27.837  11.461  -3.725  1.00  0.00     0.122 HD
BRANCH  33  35
ATOM     35  C   UNL     1      27.236  12.408  -5.466  1.00  0.00     0.107 C
ATOM     36  G   UNL     1      27.205  12.142  -6.991  1.00  0.00     0.000 C
ENDBRANCH  33  35
ENDBRANCH  32  33
ENDBRANCH  29  32
ENDBRANCH   7  29
TORSDOF 1
ENDMDL
MODEL 6
REMARK VINA RESULT:      -8.3      2.592      4.192
REMARK SMILES CC(C)(C)[C@H]1NC(=O)c2c[nH]c3ncc(nc23)C2(CC2)CNC[C@H]2[C@@H](C#N)CN2C1=O
REMARK SMILES IDX 9 1 10 2 11 3 12 4 13 5 14 6 15 7 16 8 17 9 7 11 6 12 8 13
REMARK SMILES IDX 5 15 2 16 1 17 3 18 4 19 30 20 31 21 29 22 28 23 24 24 25 25
REMARK SMILES IDX 26 26 27 27 18 29 19 30 20 31 21 32 22 33 23 35
REMARK H PARENT 11 10 6 14 22 34
REMARK Flexibility Score:  106.900
ROOT
ATOM      1  C   UNL     1      34.023  13.438  -2.959  1.00  0.00     0.085 A
ATOM      2  C   UNL     1      35.209  13.493  -2.241  1.00  0.00     0.100 A
ATOM      3  N   UNL     1      35.598  12.205  -1.939  1.00  0.00    -0.344 N
ATOM      4  C   UNL     1      34.665  11.322  -2.409  1.00  0.00     0.156 A
ATOM      5  N   UNL     1      34.642   9.987  -2.224  1.00  0.00    -0.235 NA
ATOM      6  C   UNL     1      33.503   9.453  -2.757  1.00  0.00     0.138 A
ATOM      7  C   UNL     1      32.507  10.156  -3.455  1.00  0.00     0.067 A
ATOM      8  N   UNL     1      32.636  11.485  -3.678  1.00  0.00    -0.246 NA
ATOM      9  C   UNL     1      33.712  12.061  -3.087  1.00  0.00     0.120 A
ATOM     10  H   UNL     1      36.409  11.936  -1.400  1.00  0.00     0.168 HD
ENDROOT
BRANCH   1  11
ATOM     11  C   UNL     1      33.201  14.563  -3.403  1.00  0.00     0.255 C
ATOM     12  N   UNL     1      32.437  14.266  -4.499  1.00  0.00    -0.340 N
ATOM     13  O   UNL     1      33.184  15.621  -2.792  1.00  0.00    -0.269 OA
ATOM     14  H   UNL     1      32.559  13.312  -4.842  1.00  0.00     0.164 HD
BRANCH  12  15
ATOM     15  C   UNL     1      31.263  14.902  -5.100  1.00  0.00     0.177 C
BRANCH  15  16
ATOM     16  C   UNL     1      31.282  16.391  -5.572  1.00  0.00    -0.009 C
ATOM     17  C   UNL     1      30.983  17.343  -4.395  1.00  0.00     0.013 C
ATOM     18  C   UNL     1      30.344  16.702  -6.746  1.00  0.00     0.013 C
ATOM     19  C   UNL     1      32.717  16.737  -6.056  1.00  0.00     0.013 C
ENDBRANCH  15  16
BRANCH  15  20
ATOM     20  C   UNL     1      29.990  14.444  -4.336  1.00  0.00     0.246 C
ATOM     21  O   UNL     1      30.063  14.120  -3.144  1.00  0.00    -0.272 OA
BRANCH  20  22
ATOM     22  N   UNL     1      28.801  14.345  -4.993  1.00  0.00    -0.334 N
ATOM     23  C   UNL     1      28.286  13.696  -6.179  1.00  0.00     0.141 C
ATOM     24  C   UNL     1      27.485  14.862  -4.592  1.00  0.00     0.118 C
ATOM     25  C   UNL     1      26.936  13.667  -5.421  1.00  0.00     0.136 C
ATOM     26  C   UNL     1      25.758  13.904  -6.216  1.00  0.00     0.070 C
ATOM     27  N   UNL     1      24.806  14.110  -6.847  1.00  0.00    -0.198 NA
ATOM     28  G   UNL     1      27.219  16.302  -5.095  1.00  0.00     0.000 C
ENDBRANCH  20  22
ENDBRANCH  15  20
ENDBRANCH  12  15
ENDBRANCH   1  11
BRANCH   7  29
ATOM     29  C   UNL     1      31.210   9.496  -3.924  1.00  0.00     0.027 C
ATOM     30  C   UNL     1      30.550   8.444  -3.045  1.00  0.00     0.016 C
ATOM     31  C   UNL     1      31.260   8.019  -4.293  1.00  0.00     0.016 C
BRANCH  29  32
ATOM     32  C   UNL     1      30.316  10.403  -4.766  1.00  0.00     0.094 C
BRANCH  32  33
ATOM     33  N   UNL     1      28.987  10.467  -4.164  1.00  0.00    -0.314 NA
ATOM     34  H   UNL     1      28.852  11.333  -3.641  1.00  0.00     0.122 HD
BRANCH  33  35
ATOM     35  C   UNL     1      27.906  10.230  -5.118  1.00  0.00     0.107 C
ATOM     36  G   UNL     1      28.182   9.013  -6.034  1.00  0.00     0.000 C
ENDBRANCH  33  35
ENDBRANCH  32  33
ENDBRANCH  29  32
ENDBRANCH   7  29
TORSDOF 1
ENDMDL
MODEL 7
REMARK VINA RESULT:      -8.3      2.206      3.641
REMARK SMILES CC(C)(C)[C@H]1NC(=O)c2c[nH]c3ncc(nc23)C2(CC2)CNC[C@H]2[C@@H](C#N)CN2C1=O
REMARK SMILES IDX 9 1 10 2 11 3 12 4 13 5 14 6 15 7 16 8 17 9 7 11 6 12 8 13
REMARK SMILES IDX 5 15 2 16 1 17 3 18 4 19 30 20 31 21 29 22 28 23 24 24 25 25
REMARK SMILES IDX 26 26 27 27 18 29 19 30 20 31 21 32 22 33 23 35
REMARK H PARENT 11 10 6 14 22 34
REMARK Flexibility Score:  106.900
ROOT
ATOM      1  C   UNL     1      32.360  14.676  -3.079  1.00  0.00     0.085 A
ATOM      2  C   UNL     1      33.322  15.647  -2.835  1.00  0.00     0.100 A
ATOM      3  N   UNL     1      34.535  15.022  -2.642  1.00  0.00    -0.344 N
ATOM      4  C   UNL     1      34.369  13.666  -2.711  1.00  0.00     0.156 A
ATOM      5  N   UNL     1      35.299  12.719  -2.477  1.00  0.00    -0.235 NA
ATOM      6  C   UNL     1      34.739  11.474  -2.546  1.00  0.00     0.138 A
ATOM      7  C   UNL     1      33.403  11.185  -2.869  1.00  0.00     0.067 A
ATOM      8  N   UNL     1      32.541  12.184  -3.176  1.00  0.00    -0.246 NA
ATOM      9  C   UNL     1      33.043  13.435  -3.033  1.00  0.00     0.120 A
ATOM     10  H   UNL     1      35.411  15.473  -2.418  1.00  0.00     0.168 HD
ENDROOT
BRANCH   1  11
ATOM     11  C   UNL     1      30.920  14.874  -3.243  1.00  0.00     0.255 C
ATOM     12  N   UNL     1      30.616  15.970  -4.004  1.00  0.00    -0.340 N
ATOM     13  O   UNL     1      30.111  14.084  -2.782  1.00  0.00    -0.269 OA
ATOM     14  H   UNL     1      31.434  16.483  -4.337  1.00  0.00     0.164 HD
BRANCH  12  15
ATOM     15  C   UNL     1      29.401  16.394  -4.703  1.00  0.00     0.177 C
BRANCH  15  16
ATOM     16  C   UNL     1      28.801  15.571  -5.887  1.00  0.00    -0.009 C
ATOM     17  C   UNL     1      29.553  14.235  -6.064  1.00  0.00     0.013 C
ATOM     18  C   UNL     1      28.748  16.321  -7.225  1.00  0.00     0.013 C
ATOM     19  C   UNL     1      27.334  15.200  -5.537  1.00  0.00     0.013 C
ENDBRANCH  15  16
BRANCH  15  20
ATOM     20  C   UNL     1      29.435  17.936  -4.892  1.00  0.00     0.246 C
ATOM     21  O   UNL     1      28.413  18.608  -4.709  1.00  0.00    -0.272 OA
BRANCH  20  22
ATOM     22  N   UNL     1      30.580  18.545  -5.314  1.00  0.00    -0.334 N
ATOM     23  C   UNL     1      30.989  19.856  -5.766  1.00  0.00     0.141 C
ATOM     24  C   UNL     1      31.945  18.003  -5.355  1.00  0.00     0.118 C
ATOM     25  C   UNL     1      32.372  19.487  -5.177  1.00  0.00     0.136 C
ATOM     26  C   UNL     1      33.519  19.936  -5.925  1.00  0.00     0.070 C
ATOM     27  N   UNL     1      34.447  20.279  -6.530  1.00  0.00    -0.198 NA
ATOM     28  G   UNL     1      32.275  17.287  -6.687  1.00  0.00     0.000 C
ENDBRANCH  20  22
ENDBRANCH  15  20
ENDBRANCH  12  15
ENDBRANCH   1  11
BRANCH   7  29
ATOM     29  C   UNL     1      32.831   9.768  -2.816  1.00  0.00     0.027 C
ATOM     30  C   UNL     1      32.685   9.074  -1.469  1.00  0.00     0.016 C
ATOM     31  C   UNL     1      33.771   8.642  -2.406  1.00  0.00     0.016 C
BRANCH  29  32
ATOM     32  C   UNL     1      31.803   9.468  -3.903  1.00  0.00     0.094 C
BRANCH  32  33
ATOM     33  N   UNL     1      30.467   9.787  -3.407  1.00  0.00    -0.314 NA
ATOM     34  H   UNL     1      30.504  10.250  -2.499  1.00  0.00     0.122 HD
BRANCH  33  35
ATOM     35  C   UNL     1      29.654  10.531  -4.367  1.00  0.00     0.107 C
ATOM     36  G   UNL     1      29.022   9.615  -5.442  1.00  0.00     0.000 C
ENDBRANCH  33  35
ENDBRANCH  32  33
ENDBRANCH  29  32
ENDBRANCH   7  29
TORSDOF 1
ENDMDL
MODEL 8
REMARK VINA RESULT:      -8.3      2.319      3.696
REMARK SMILES CC(C)(C)[C@H]1NC(=O)c2c[nH]c3ncc(nc23)C2(CC2)CNC[C@H]2[C@@H](C#N)CN2C1=O
REMARK SMILES IDX 9 1 10 2 11 3 12 4 13 5 14 6 15 7 16 8 17 9 7 11 6 12 8 13
REMARK SMILES IDX 5 15 2 16 1 17 3 18 4 19 30 20 31 21 29 22 28 23 24 24 25 25
REMARK SMILES IDX 26 26 27 27 18 29 19 30 20 31 21 32 22 33 23 35
REMARK H PARENT 11 10 6 14 22 34
REMARK Flexibility Score:  106.900
ROOT
ATOM      1  C   UNL     1      32.061  14.606  -3.207  1.00  0.00     0.085 A
ATOM      2  C   UNL     1      33.031  15.563  -2.943  1.00  0.00     0.100 A
ATOM      3  N   UNL     1      34.233  14.922  -2.730  1.00  0.00    -0.344 N
ATOM      4  C   UNL     1      34.051  13.569  -2.807  1.00  0.00     0.156 A
ATOM      5  N   UNL     1      34.964  12.609  -2.559  1.00  0.00    -0.235 NA
ATOM      6  C   UNL     1      34.389  11.372  -2.643  1.00  0.00     0.138 A
ATOM      7  C   UNL     1      33.056  11.101  -2.991  1.00  0.00     0.067 A
ATOM      8  N   UNL     1      32.213  12.112  -3.309  1.00  0.00    -0.246 NA
ATOM      9  C   UNL     1      32.728  13.356  -3.153  1.00  0.00     0.120 A
ATOM     10  H   UNL     1      35.110  15.361  -2.489  1.00  0.00     0.168 HD
ENDROOT
BRANCH   1  11
ATOM     11  C   UNL     1      30.628  14.823  -3.397  1.00  0.00     0.255 C
ATOM     12  N   UNL     1      30.344  16.022  -3.992  1.00  0.00    -0.340 N
ATOM     13  O   UNL     1      29.808  13.969  -3.094  1.00  0.00    -0.269 OA
ATOM     14  H   UNL     1      31.170  16.581  -4.210  1.00  0.00     0.164 HD
BRANCH  12  15
ATOM     15  C   UNL     1      29.154  16.544  -4.666  1.00  0.00     0.177 C
BRANCH  15  16
ATOM     16  C   UNL     1      28.481  15.788  -5.857  1.00  0.00    -0.009 C
ATOM     17  C   UNL     1      27.082  15.274  -5.460  1.00  0.00     0.013 C
ATOM     18  C   UNL     1      29.315  14.637  -6.436  1.00  0.00     0.013 C
ATOM     19  C   UNL     1      28.261  16.795  -7.019  1.00  0.00     0.013 C
ENDBRANCH  15  16
BRANCH  15  20
ATOM     20  C   UNL     1      29.295  18.083  -4.827  1.00  0.00     0.246 C
ATOM     21  O   UNL     1      28.301  18.813  -4.727  1.00  0.00    -0.272 OA
BRANCH  20  22
ATOM     22  N   UNL     1      30.507  18.626  -5.135  1.00  0.00    -0.334 N
ATOM     23  C   UNL     1      31.868  18.545  -4.653  1.00  0.00     0.141 C
ATOM     24  C   UNL     1      30.859  19.508  -6.257  1.00  0.00     0.118 C
ATOM     25  C   UNL     1      32.269  18.869  -6.113  1.00  0.00     0.136 C
ATOM     26  C   UNL     1      33.405  19.739  -6.279  1.00  0.00     0.070 C
ATOM     27  N   UNL     1      34.309  20.451  -6.421  1.00  0.00    -0.198 NA
ATOM     28  G   UNL     1      30.685  21.010  -5.927  1.00  0.00     0.000 C
ENDBRANCH  20  22
ENDBRANCH  15  20
ENDBRANCH  12  15
ENDBRANCH   1  11
BRANCH   7  29
ATOM     29  C   UNL     1      32.465   9.691  -2.953  1.00  0.00     0.027 C
ATOM     30  C   UNL     1      32.291   8.993  -1.611  1.00  0.00     0.016 C
ATOM     31  C   UNL     1      33.385   8.551  -2.534  1.00  0.00     0.016 C
BRANCH  29  32
ATOM     32  C   UNL     1      31.449   9.409  -4.056  1.00  0.00     0.094 C
BRANCH  32  33
ATOM     33  N   UNL     1      30.187  10.068  -3.731  1.00  0.00    -0.314 NA
ATOM     34  H   UNL     1      30.333  11.031  -3.427  1.00  0.00     0.122 HD
BRANCH  33  35
ATOM     35  C   UNL     1      29.194   9.977  -4.798  1.00  0.00     0.107 C
ATOM     36  G   UNL     1      28.439  11.310  -5.020  1.00  0.00     0.000 C
ENDBRANCH  33  35
ENDBRANCH  32  33
ENDBRANCH  29  32
ENDBRANCH   7  29
TORSDOF 1
ENDMDL
MODEL 9
REMARK VINA RESULT:      -8.2      2.235      3.777
REMARK SMILES CC(C)(C)[C@H]1NC(=O)c2c[nH]c3ncc(nc23)C2(CC2)CNC[C@H]2[C@@H](C#N)CN2C1=O
REMARK SMILES IDX 9 1 10 2 11 3 12 4 13 5 14 6 15 7 16 8 17 9 7 11 6 12 8 13
REMARK SMILES IDX 5 15 2 16 1 17 3 18 4 19 30 20 31 21 29 22 28 23 24 24 25 25
REMARK SMILES IDX 26 26 27 27 18 29 19 30 20 31 21 32 22 33 23 35
REMARK H PARENT 11 10 6 14 22 34
REMARK Flexibility Score:  106.900
ROOT
ATOM      1  C   UNL     1      32.681  14.517  -4.117  1.00  0.00     0.085 A
ATOM      2  C   UNL     1      33.428  15.589  -3.650  1.00  0.00     0.100 A
ATOM      3  N   UNL     1      34.428  15.103  -2.834  1.00  0.00    -0.344 N
ATOM      4  C   UNL     1      34.314  13.744  -2.729  1.00  0.00     0.156 A
ATOM      5  N   UNL     1      35.043  12.924  -1.945  1.00  0.00    -0.235 NA
ATOM      6  C   UNL     1      34.576  11.643  -2.034  1.00  0.00     0.138 A
ATOM      7  C   UNL     1      33.528  11.199  -2.856  1.00  0.00     0.067 A
ATOM      8  N   UNL     1      32.893  12.063  -3.682  1.00  0.00    -0.246 NA
ATOM      9  C   UNL     1      33.274  13.358  -3.556  1.00  0.00     0.120 A
ATOM     10  H   UNL     1      35.109  15.653  -2.330  1.00  0.00     0.168 HD
ENDROOT
BRANCH   1  11
ATOM     11  C   UNL     1      31.467  14.568  -4.932  1.00  0.00     0.255 C
ATOM     12  N   UNL     1      30.554  15.478  -4.472  1.00  0.00    -0.340 N
ATOM     13  O   UNL     1      31.349  13.894  -5.944  1.00  0.00    -0.269 OA
ATOM     14  H   UNL     1      30.854  15.978  -3.633  1.00  0.00     0.164 HD
BRANCH  12  15
ATOM     15  C   UNL     1      29.386  16.116  -5.082  1.00  0.00     0.177 C
BRANCH  15  16
ATOM     16  C   UNL     1      28.081  15.317  -5.398  1.00  0.00    -0.009 C
ATOM     17  C   UNL     1      26.846  16.241  -5.346  1.00  0.00     0.013 C
ATOM     18  C   UNL     1      27.852  14.089  -4.506  1.00  0.00     0.013 C
ATOM     19  C   UNL     1      28.167  14.787  -6.855  1.00  0.00     0.013 C
ENDBRANCH  15  16
BRANCH  15  20
ATOM     20  C   UNL     1      29.863  17.106  -6.180  1.00  0.00     0.246 C
ATOM     21  O   UNL     1      29.863  16.763  -7.369  1.00  0.00    -0.272 OA
BRANCH  20  22
ATOM     22  N   UNL     1      30.336  18.335  -5.829  1.00  0.00    -0.334 N
ATOM     23  C   UNL     1      29.883  19.708  -5.876  1.00  0.00     0.141 C
ATOM     24  C   UNL     1      31.579  18.672  -5.120  1.00  0.00     0.118 C
ATOM     25  C   UNL     1      30.778  19.910  -4.628  1.00  0.00     0.136 C
ATOM     26  C   UNL     1      31.486  21.163  -4.554  1.00  0.00     0.070 C
ATOM     27  N   UNL     1      32.071  22.163  -4.495  1.00  0.00    -0.198 NA
ATOM     28  G   UNL     1      32.781  18.890  -6.070  1.00  0.00     0.000 C
ENDBRANCH  20  22
ENDBRANCH  15  20
ENDBRANCH  12  15
ENDBRANCH   1  11
BRANCH   7  29
ATOM     29  C   UNL     1      32.998   9.765  -2.812  1.00  0.00     0.027 C
ATOM     30  C   UNL     1      32.933   9.037  -1.476  1.00  0.00     0.016 C
ATOM     31  C   UNL     1      33.985   8.656  -2.472  1.00  0.00     0.016 C
BRANCH  29  32
ATOM     32  C   UNL     1      31.928   9.462  -3.857  1.00  0.00     0.094 C
BRANCH  32  33
ATOM     33  N   UNL     1      30.618   9.842  -3.334  1.00  0.00    -0.314 NA
ATOM     34  H   UNL     1      30.700  10.381  -2.472  1.00  0.00     0.122 HD
BRANCH  33  35
ATOM     35  C   UNL     1      29.773  10.511  -4.319  1.00  0.00     0.107 C
ATOM     36  G   UNL     1      29.039   9.512  -5.246  1.00  0.00     0.000 C
ENDBRANCH  33  35
ENDBRANCH  32  33
ENDBRANCH  29  32
ENDBRANCH   7  29
TORSDOF 1
ENDMDL
