MODEL 1
REMARK VINA RESULT:     -10.5      0.000      0.000
REMARK SMILES Fc1cc2cc(F)c1CN1CCOC[C@@H]1CNCC1(CCNCC1)n1cc(cn1)-c1cnc3cccc-2c3n1
REMARK SMILES IDX 1 1 2 2 3 3 4 4 5 5 6 6 7 7 8 8 9 9 10 10 11 11 15 12 12 13
REMARK SMILES IDX 14 14 13 15 16 16 17 17 18 19 37 21 36 22 38 23 35 24 39 25
REMARK SMILES IDX 33 26 34 27 30 28 32 29 31 30 27 31 26 32 28 33 25 34 29 35
REMARK SMILES IDX 19 36 20 37 24 38 21 39 23 40 22 41
REMARK H PARENT 17 18 22 42
REMARK Flexibility Score:   78.900
ROOT
ATOM      1  F   UNL     1      32.567  15.475  -6.103  1.00  0.00    -0.207 F
ATOM      2  C   UNL     1      32.397  15.085  -4.831  1.00  0.00     0.131 A
ATOM      3  C   UNL     1      32.992  13.899  -4.418  1.00  0.00     0.048 A
ATOM      4  C   UNL     1      32.904  13.474  -3.080  1.00  0.00    -0.010 A
ATOM      5  C   UNL     1      32.107  14.223  -2.208  1.00  0.00     0.048 A
ATOM      6  C   UNL     1      31.500  15.403  -2.647  1.00  0.00     0.131 A
ATOM      7  F   UNL     1      30.762  16.096  -1.768  1.00  0.00    -0.207 F
ATOM      8  C   UNL     1      31.668  15.876  -3.949  1.00  0.00     0.038 A
ENDROOT
BRANCH   8   9
ATOM      9  C   UNL     1      31.135  17.212  -4.390  1.00  0.00     0.126 C
BRANCH   9  10
ATOM     10  N   UNL     1      30.448  17.103  -5.696  1.00  0.00    -0.290 NA
ATOM     11  C   UNL     1      30.566  18.387  -6.435  1.00  0.00     0.113 C
ATOM     12  C   UNL     1      28.994  16.808  -5.569  1.00  0.00     0.096 C
ATOM     13  C   UNL     1      29.421  19.393  -6.176  1.00  0.00     0.175 C
ATOM     14  C   UNL     1      28.248  17.895  -4.751  1.00  0.00     0.180 C
ATOM     15  O   UNL     1      28.827  19.206  -4.887  1.00  0.00    -0.378 OA
BRANCH  12  16
ATOM     16  C   UNL     1      28.620  15.379  -5.084  1.00  0.00     0.102 C
BRANCH  16  17
ATOM     17  N   UNL     1      29.054  14.357  -6.051  1.00  0.00    -0.313 NA
ATOM     18  H   UNL     1      29.416  13.555  -5.529  1.00  0.00     0.122 HD
BRANCH  17  19
ATOM     19  C   UNL     1      27.979  13.960  -6.977  1.00  0.00     0.111 C
ATOM     20  G   UNL     1      26.961  12.892  -6.424  1.00  0.00     0.000 C
ENDBRANCH  17  19
ENDBRANCH  16  17
ENDBRANCH  12  16
ENDBRANCH   9  10
ENDBRANCH   8   9
BRANCH   4  21
ATOM     21  C   UNL     1      33.741  12.356  -2.599  1.00  0.00     0.010 A
ATOM     22  C   UNL     1      34.953  12.589  -1.934  1.00  0.00     0.011 A
ATOM     23  C   UNL     1      33.310  11.032  -2.810  1.00  0.00     0.097 A
ATOM     24  C   UNL     1      35.712  11.517  -1.468  1.00  0.00     0.003 A
ATOM     25  N   UNL     1      32.160  10.810  -3.476  1.00  0.00    -0.244 NA
ATOM     26  C   UNL     1      34.066   9.944  -2.318  1.00  0.00     0.089 A
ATOM     27  C   UNL     1      35.259  10.210  -1.660  1.00  0.00     0.030 A
ATOM     28  C   UNL     1      31.727   9.544  -3.616  1.00  0.00     0.092 A
ATOM     29  N   UNL     1      33.644   8.668  -2.471  1.00  0.00    -0.252 NA
ATOM     30  C   UNL     1      32.461   8.488  -3.115  1.00  0.00     0.140 A
BRANCH  28  31
ATOM     31  C   UNL     1      30.440   9.415  -4.251  1.00  0.00     0.040 A
ATOM     32  C   UNL     1      29.985   8.253  -4.840  1.00  0.00     0.119 A
ATOM     33  C   UNL     1      29.463  10.371  -4.572  1.00  0.00     0.145 A
ATOM     34  N   UNL     1      28.785   8.547  -5.432  1.00  0.00    -0.265 N
ATOM     35  N   UNL     1      28.481   9.867  -5.323  1.00  0.00    -0.180 NA
BRANCH  34  36
ATOM     36  C   UNL     1      27.949   7.644  -6.259  1.00  0.00     0.078 C
ATOM     37  C   UNL     1      28.748   7.147  -7.501  1.00  0.00     0.047 C
ATOM     38  C   UNL     1      26.664   8.355  -6.797  1.00  0.00     0.047 C
ATOM     39  C   UNL     1      29.118   8.287  -8.460  1.00  0.00     0.083 C
ATOM     40  C   UNL     1      26.803   8.923  -8.213  1.00  0.00     0.083 C
ATOM     41  N   UNL     1      28.152   9.386  -8.467  1.00  0.00    -0.317 NA
ATOM     42  H   UNL     1      28.207   9.885  -9.354  1.00  0.00     0.122 HD
ATOM     43  G   UNL     1      27.573   6.385  -5.391  1.00  0.00     0.000 C
ENDBRANCH  34  36
ENDBRANCH  28  31
ENDBRANCH   4  21
TORSDOF 0
ENDMDL
MODEL 2
REMARK VINA RESULT:     -10.3      1.021      1.744
REMARK SMILES Fc1cc2cc(F)c1CN1CCOC[C@@H]1CNCC1(CCNCC1)n1cc(cn1)-c1cnc3cccc-2c3n1
REMARK SMILES IDX 1 1 2 2 3 3 4 4 5 5 6 6 7 7 8 8 9 9 10 10 11 11 15 12 12 13
REMARK SMILES IDX 14 14 13 15 16 16 17 17 18 19 37 21 36 22 38 23 35 24 39 25
REMARK SMILES IDX 33 26 34 27 30 28 32 29 31 30 27 31 26 32 28 33 25 34 29 35
REMARK SMILES IDX 19 36 20 37 24 38 21 39 23 40 22 41
REMARK H PARENT 17 18 22 42
REMARK Flexibility Score:   78.900
ROOT
ATOM      1  F   UNL     1      30.167  15.766  -2.114  1.00  0.00    -0.207 F
ATOM      2  C   UNL     1      31.014  15.172  -2.967  1.00  0.00     0.131 A
ATOM      3  C   UNL     1      31.958  14.289  -2.454  1.00  0.00     0.048 A
ATOM      4  C   UNL     1      32.827  13.586  -3.306  1.00  0.00    -0.010 A
ATOM      5  C   UNL     1      32.788  13.886  -4.672  1.00  0.00     0.048 A
ATOM      6  C   UNL     1      31.845  14.791  -5.167  1.00  0.00     0.131 A
ATOM      7  F   UNL     1      31.834  15.031  -6.487  1.00  0.00    -0.207 F
ATOM      8  C   UNL     1      30.916  15.416  -4.333  1.00  0.00     0.038 A
ENDROOT
BRANCH   8   9
ATOM      9  C   UNL     1      29.811  16.281  -4.873  1.00  0.00     0.126 C
BRANCH   9  10
ATOM     10  N   UNL     1      29.155  15.638  -6.033  1.00  0.00    -0.290 NA
ATOM     11  C   UNL     1      29.046  16.611  -7.152  1.00  0.00     0.113 C
ATOM     12  C   UNL     1      27.775  15.162  -5.736  1.00  0.00     0.096 C
ATOM     13  C   UNL     1      27.741  17.440  -7.166  1.00  0.00     0.175 C
ATOM     14  C   UNL     1      26.848  16.316  -5.271  1.00  0.00     0.180 C
ATOM     15  O   UNL     1      27.188  17.588  -5.854  1.00  0.00    -0.378 OA
BRANCH  12  16
ATOM     16  C   UNL     1      27.659  13.929  -4.797  1.00  0.00     0.102 C
BRANCH  16  17
ATOM     17  N   UNL     1      26.777  12.900  -5.373  1.00  0.00    -0.313 NA
ATOM     18  H   UNL     1      25.828  13.062  -5.028  1.00  0.00     0.122 HD
BRANCH  17  19
ATOM     19  C   UNL     1      26.822  12.874  -6.846  1.00  0.00     0.111 C
ATOM     20  G   UNL     1      25.475  13.237  -7.576  1.00  0.00     0.000 C
ENDBRANCH  17  19
ENDBRANCH  16  17
ENDBRANCH  12  16
ENDBRANCH   9  10
ENDBRANCH   8   9
BRANCH   4  21
ATOM     21  C   UNL     1      33.647  12.475  -2.780  1.00  0.00     0.010 A
ATOM     22  C   UNL     1      34.857  12.716  -2.115  1.00  0.00     0.011 A
ATOM     23  C   UNL     1      33.200  11.150  -2.947  1.00  0.00     0.097 A
ATOM     24  C   UNL     1      35.599  11.652  -1.606  1.00  0.00     0.003 A
ATOM     25  N   UNL     1      32.051  10.920  -3.613  1.00  0.00    -0.244 NA
ATOM     26  C   UNL     1      33.939  10.070  -2.412  1.00  0.00     0.089 A
ATOM     27  C   UNL     1      35.130  10.344  -1.755  1.00  0.00     0.030 A
ATOM     28  C   UNL     1      31.603   9.655  -3.711  1.00  0.00     0.092 A
ATOM     29  N   UNL     1      33.500   8.795  -2.523  1.00  0.00    -0.252 NA
ATOM     30  C   UNL     1      32.319   8.608  -3.168  1.00  0.00     0.140 A
BRANCH  28  31
ATOM     31  C   UNL     1      30.319   9.520  -4.350  1.00  0.00     0.040 A
ATOM     32  C   UNL     1      29.870   8.356  -4.940  1.00  0.00     0.119 A
ATOM     33  C   UNL     1      29.338  10.471  -4.675  1.00  0.00     0.145 A
ATOM     34  N   UNL     1      28.671   8.644  -5.537  1.00  0.00    -0.265 N
ATOM     35  N   UNL     1      28.361   9.963  -5.429  1.00  0.00    -0.180 NA
BRANCH  34  36
ATOM     36  C   UNL     1      27.842   7.738  -6.365  1.00  0.00     0.078 C
ATOM     37  C   UNL     1      28.649   7.240  -7.602  1.00  0.00     0.047 C
ATOM     38  C   UNL     1      26.558   8.444  -6.912  1.00  0.00     0.047 C
ATOM     39  C   UNL     1      29.021   8.379  -8.562  1.00  0.00     0.083 C
ATOM     40  C   UNL     1      26.702   9.009  -8.329  1.00  0.00     0.083 C
ATOM     41  N   UNL     1      28.052   9.475  -8.576  1.00  0.00    -0.317 NA
ATOM     42  H   UNL     1      28.110   9.972  -9.464  1.00  0.00     0.122 HD
ATOM     43  G   UNL     1      27.465   6.479  -5.497  1.00  0.00     0.000 C
ENDBRANCH  34  36
ENDBRANCH  28  31
ENDBRANCH   4  21
TORSDOF 0
ENDMDL
MODEL 3
REMARK VINA RESULT:     -10.3      1.276      1.640
REMARK SMILES Fc1cc2cc(F)c1CN1CCOC[C@@H]1CNCC1(CCNCC1)n1cc(cn1)-c1cnc3cccc-2c3n1
REMARK SMILES IDX 1 1 2 2 3 3 4 4 5 5 6 6 7 7 8 8 9 9 10 10 11 11 15 12 12 13
REMARK SMILES IDX 14 14 13 15 16 16 17 17 18 19 37 21 36 22 38 23 35 24 39 25
REMARK SMILES IDX 33 26 34 27 30 28 32 29 31 30 27 31 26 32 28 33 25 34 29 35
REMARK SMILES IDX 19 36 20 37 24 38 21 39 23 40 22 41
REMARK H PARENT 17 18 22 42
REMARK Flexibility Score:   78.900
ROOT
ATOM      1  F   UNL     1      31.600  17.331  -3.371  1.00  0.00    -0.207 F
ATOM      2  C   UNL     1      31.565  16.085  -3.865  1.00  0.00     0.131 A
ATOM      3  C   UNL     1      32.541  15.183  -3.454  1.00  0.00     0.048 A
ATOM      4  C   UNL     1      32.517  13.846  -3.886  1.00  0.00    -0.010 A
ATOM      5  C   UNL     1      31.548  13.480  -4.826  1.00  0.00     0.048 A
ATOM      6  C   UNL     1      30.587  14.405  -5.243  1.00  0.00     0.131 A
ATOM      7  F   UNL     1      29.667  14.002  -6.131  1.00  0.00    -0.207 F
ATOM      8  C   UNL     1      30.552  15.707  -4.739  1.00  0.00     0.038 A
ENDROOT
BRANCH   8   9
ATOM      9  C   UNL     1      29.441  16.664  -5.074  1.00  0.00     0.126 C
BRANCH   9  10
ATOM     10  N   UNL     1      29.626  17.237  -6.426  1.00  0.00    -0.290 NA
ATOM     11  C   UNL     1      30.310  18.552  -6.326  1.00  0.00     0.113 C
ATOM     12  C   UNL     1      28.342  17.469  -7.144  1.00  0.00     0.096 C
ATOM     13  C   UNL     1      29.364  19.767  -6.192  1.00  0.00     0.175 C
ATOM     14  C   UNL     1      27.406  18.432  -6.367  1.00  0.00     0.180 C
ATOM     15  O   UNL     1      28.118  19.410  -5.586  1.00  0.00    -0.378 OA
BRANCH  12  16
ATOM     16  C   UNL     1      27.580  16.201  -7.622  1.00  0.00     0.102 C
BRANCH  16  17
ATOM     17  N   UNL     1      26.318  16.027  -6.882  1.00  0.00    -0.313 NA
ATOM     18  H   UNL     1      25.543  16.190  -7.529  1.00  0.00     0.122 HD
BRANCH  17  19
ATOM     19  C   UNL     1      26.218  14.706  -6.236  1.00  0.00     0.111 C
ATOM     20  G   UNL     1      26.509  14.680  -4.689  1.00  0.00     0.000 C
ENDBRANCH  17  19
ENDBRANCH  16  17
ENDBRANCH  12  16
ENDBRANCH   9  10
ENDBRANCH   8   9
BRANCH   4  21
ATOM     21  C   UNL     1      33.400  12.844  -3.253  1.00  0.00     0.010 A
ATOM     22  C   UNL     1      34.603  13.220  -2.640  1.00  0.00     0.011 A
ATOM     23  C   UNL     1      33.022  11.487  -3.265  1.00  0.00     0.097 A
ATOM     24  C   UNL     1      35.406  12.259  -2.029  1.00  0.00     0.003 A
ATOM     25  N   UNL     1      31.881  11.125  -3.882  1.00  0.00    -0.244 NA
ATOM     26  C   UNL     1      33.824  10.514  -2.626  1.00  0.00     0.089 A
ATOM     27  C   UNL     1      35.006  10.921  -2.023  1.00  0.00     0.030 A
ATOM     28  C   UNL     1      31.500   9.835  -3.832  1.00  0.00     0.092 A
ATOM     29  N   UNL     1      33.453   9.214  -2.587  1.00  0.00    -0.252 NA
ATOM     30  C   UNL     1      32.276   8.894  -3.188  1.00  0.00     0.140 A
BRANCH  28  31
ATOM     31  C   UNL     1      30.217   9.564  -4.430  1.00  0.00     0.040 A
ATOM     32  C   UNL     1      29.886   8.367  -5.032  1.00  0.00     0.119 A
ATOM     33  C   UNL     1      29.121  10.401  -4.699  1.00  0.00     0.145 A
ATOM     34  N   UNL     1      28.641   8.525  -5.581  1.00  0.00    -0.265 N
ATOM     35  N   UNL     1      28.183   9.796  -5.431  1.00  0.00    -0.180 NA
BRANCH  34  36
ATOM     36  C   UNL     1      27.893   7.544  -6.402  1.00  0.00     0.078 C
ATOM     37  C   UNL     1      28.770   7.048  -7.591  1.00  0.00     0.047 C
ATOM     38  C   UNL     1      26.593   8.157  -7.019  1.00  0.00     0.047 C
ATOM     39  C   UNL     1      29.114   8.170  -8.580  1.00  0.00     0.083 C
ATOM     40  C   UNL     1      26.758   8.678  -8.450  1.00  0.00     0.083 C
ATOM     41  N   UNL     1      28.088   9.209  -8.669  1.00  0.00    -0.317 NA
ATOM     42  H   UNL     1      28.151   9.677  -9.573  1.00  0.00     0.122 HD
ATOM     43  G   UNL     1      27.554   6.299  -5.500  1.00  0.00     0.000 C
ENDBRANCH  34  36
ENDBRANCH  28  31
ENDBRANCH   4  21
TORSDOF 0
ENDMDL
MODEL 4
REMARK VINA RESULT:     -10.2      1.676      3.334
REMARK SMILES Fc1cc2cc(F)c1CN1CCOC[C@@H]1CNCC1(CCNCC1)n1cc(cn1)-c1cnc3cccc-2c3n1
REMARK SMILES IDX 1 1 2 2 3 3 4 4 5 5 6 6 7 7 8 8 9 9 10 10 11 11 15 12 12 13
REMARK SMILES IDX 14 14 13 15 16 16 17 17 18 19 37 21 36 22 38 23 35 24 39 25
REMARK SMILES IDX 33 26 34 27 30 28 32 29 31 30 27 31 26 32 28 33 25 34 29 35
REMARK SMILES IDX 19 36 20 37 24 38 21 39 23 40 22 41
REMARK H PARENT 17 18 22 42
REMARK Flexibility Score:   78.900
ROOT
ATOM      1  F   UNL     1      32.785  16.847  -4.728  1.00  0.00    -0.207 F
ATOM      2  C   UNL     1      32.442  15.551  -4.737  1.00  0.00     0.131 A
ATOM      3  C   UNL     1      33.280  14.640  -4.103  1.00  0.00     0.048 A
ATOM      4  C   UNL     1      32.939  13.279  -4.023  1.00  0.00    -0.010 A
ATOM      5  C   UNL     1      31.789  12.852  -4.695  1.00  0.00     0.048 A
ATOM      6  C   UNL     1      30.969  13.779  -5.345  1.00  0.00     0.131 A
ATOM      7  F   UNL     1      29.867  13.323  -5.959  1.00  0.00    -0.207 F
ATOM      8  C   UNL     1      31.256  15.145  -5.341  1.00  0.00     0.038 A
ENDROOT
BRANCH   8   9
ATOM      9  C   UNL     1      30.309  16.163  -5.914  1.00  0.00     0.126 C
BRANCH   9  10
ATOM     10  N   UNL     1      29.624  16.913  -4.839  1.00  0.00    -0.290 NA
ATOM     11  C   UNL     1      28.268  16.346  -4.615  1.00  0.00     0.113 C
ATOM     12  C   UNL     1      29.443  18.357  -5.155  1.00  0.00     0.096 C
ATOM     13  C   UNL     1      27.148  16.990  -5.463  1.00  0.00     0.175 C
ATOM     14  C   UNL     1      28.621  18.570  -6.454  1.00  0.00     0.180 C
ATOM     15  O   UNL     1      27.650  17.534  -6.688  1.00  0.00    -0.378 OA
BRANCH  12  16
ATOM     16  C   UNL     1      30.729  19.230  -5.150  1.00  0.00     0.102 C
BRANCH  16  17
ATOM     17  N   UNL     1      30.739  20.159  -4.007  1.00  0.00    -0.313 NA
ATOM     18  H   UNL     1      31.327  19.757  -3.273  1.00  0.00     0.122 HD
BRANCH  17  19
ATOM     19  C   UNL     1      31.186  21.513  -4.380  1.00  0.00     0.111 C
ATOM     20  G   UNL     1      31.936  21.628  -5.760  1.00  0.00     0.000 C
ENDBRANCH  17  19
ENDBRANCH  16  17
ENDBRANCH  12  16
ENDBRANCH   9  10
ENDBRANCH   8   9
BRANCH   4  21
ATOM     21  C   UNL     1      33.702  12.372  -3.139  1.00  0.00     0.010 A
ATOM     22  C   UNL     1      34.812  12.827  -2.414  1.00  0.00     0.011 A
ATOM     23  C   UNL     1      33.302  11.027  -3.023  1.00  0.00     0.097 A
ATOM     24  C   UNL     1      35.499  11.958  -1.569  1.00  0.00     0.003 A
ATOM     25  N   UNL     1      32.254  10.585  -3.743  1.00  0.00    -0.244 NA
ATOM     26  C   UNL     1      33.983  10.149  -2.148  1.00  0.00     0.089 A
ATOM     27  C   UNL     1      35.075  10.633  -1.441  1.00  0.00     0.030 A
ATOM     28  C   UNL     1      31.843   9.314  -3.576  1.00  0.00     0.092 A
ATOM     29  N   UNL     1      33.584   8.866  -1.989  1.00  0.00    -0.252 NA
ATOM     30  C   UNL     1      32.500   8.469  -2.705  1.00  0.00     0.140 A
BRANCH  28  31
ATOM     31  C   UNL     1      30.654   8.964  -4.312  1.00  0.00     0.040 A
ATOM     32  C   UNL     1      30.491   7.774  -4.990  1.00  0.00     0.119 A
ATOM     33  C   UNL     1      29.520   9.717  -4.658  1.00  0.00     0.145 A
ATOM     34  N   UNL     1      29.297   7.852  -5.656  1.00  0.00    -0.265 N
ATOM     35  N   UNL     1      28.716   9.071  -5.505  1.00  0.00    -0.180 NA
BRANCH  34  36
ATOM     36  C   UNL     1      28.722   6.852  -6.588  1.00  0.00     0.078 C
ATOM     37  C   UNL     1      27.225   6.588  -6.247  1.00  0.00     0.047 C
ATOM     38  C   UNL     1      29.458   5.474  -6.504  1.00  0.00     0.047 C
ATOM     39  C   UNL     1      27.036   5.953  -4.862  1.00  0.00     0.083 C
ATOM     40  C   UNL     1      28.789   4.455  -5.578  1.00  0.00     0.083 C
ATOM     41  N   UNL     1      28.154   5.104  -4.449  1.00  0.00    -0.317 NA
ATOM     42  H   UNL     1      27.830   4.419  -3.767  1.00  0.00     0.122 HD
ATOM     43  G   UNL     1      28.789   7.439  -8.047  1.00  0.00     0.000 C
ENDBRANCH  34  36
ENDBRANCH  28  31
ENDBRANCH   4  21
TORSDOF 0
ENDMDL
MODEL 5
REMARK VINA RESULT:     -10.2      0.936      1.275
REMARK SMILES Fc1cc2cc(F)c1CN1CCOC[C@@H]1CNCC1(CCNCC1)n1cc(cn1)-c1cnc3cccc-2c3n1
REMARK SMILES IDX 1 1 2 2 3 3 4 4 5 5 6 6 7 7 8 8 9 9 10 10 11 11 15 12 12 13
REMARK SMILES IDX 14 14 13 15 16 16 17 17 18 19 37 21 36 22 38 23 35 24 39 25
REMARK SMILES IDX 33 26 34 27 30 28 32 29 31 30 27 31 26 32 28 33 25 34 29 35
REMARK SMILES IDX 19 36 20 37 24 38 21 39 23 40 22 41
REMARK H PARENT 17 18 22 42
REMARK Flexibility Score:   78.900
ROOT
ATOM      1  F   UNL     1      32.040  15.294  -6.038  1.00  0.00    -0.207 F
ATOM      2  C   UNL     1      32.061  14.991  -4.732  1.00  0.00     0.131 A
ATOM      3  C   UNL     1      32.713  13.830  -4.333  1.00  0.00     0.048 A
ATOM      4  C   UNL     1      32.825  13.496  -2.971  1.00  0.00    -0.010 A
ATOM      5  C   UNL     1      32.165  14.307  -2.043  1.00  0.00     0.048 A
ATOM      6  C   UNL     1      31.497  15.460  -2.464  1.00  0.00     0.131 A
ATOM      7  F   UNL     1      30.897  16.216  -1.534  1.00  0.00    -0.207 F
ATOM      8  C   UNL     1      31.469  15.845  -3.806  1.00  0.00     0.038 A
ENDROOT
BRANCH   8   9
ATOM      9  C   UNL     1      30.875  17.153  -4.251  1.00  0.00     0.126 C
BRANCH   9  10
ATOM     10  N   UNL     1      31.428  17.566  -5.560  1.00  0.00    -0.290 NA
ATOM     11  C   UNL     1      32.728  18.258  -5.362  1.00  0.00     0.113 C
ATOM     12  C   UNL     1      30.542  18.510  -6.298  1.00  0.00     0.096 C
ATOM     13  C   UNL     1      32.627  19.790  -5.179  1.00  0.00     0.175 C
ATOM     14  C   UNL     1      30.270  19.806  -5.488  1.00  0.00     0.180 C
ATOM     15  O   UNL     1      31.364  20.181  -4.630  1.00  0.00    -0.378 OA
BRANCH  12  16
ATOM     16  C   UNL     1      29.226  17.915  -6.872  1.00  0.00     0.102 C
BRANCH  16  17
ATOM     17  N   UNL     1      29.443  16.563  -7.413  1.00  0.00    -0.313 NA
ATOM     18  H   UNL     1      30.345  16.222  -7.070  1.00  0.00     0.122 HD
BRANCH  17  19
ATOM     19  C   UNL     1      28.349  15.635  -7.076  1.00  0.00     0.111 C
ATOM     20  G   UNL     1      28.771  14.342  -6.281  1.00  0.00     0.000 C
ENDBRANCH  17  19
ENDBRANCH  16  17
ENDBRANCH  12  16
ENDBRANCH   9  10
ENDBRANCH   8   9
BRANCH   4  21
ATOM     21  C   UNL     1      33.727  12.405  -2.546  1.00  0.00     0.010 A
ATOM     22  C   UNL     1      34.944  12.676  -1.904  1.00  0.00     0.011 A
ATOM     23  C   UNL     1      33.353  11.069  -2.787  1.00  0.00     0.097 A
ATOM     24  C   UNL     1      35.764  11.629  -1.491  1.00  0.00     0.003 A
ATOM     25  N   UNL     1      32.198  10.812  -3.430  1.00  0.00    -0.244 NA
ATOM     26  C   UNL     1      34.173  10.004  -2.347  1.00  0.00     0.089 A
ATOM     27  C   UNL     1      35.369  10.307  -1.711  1.00  0.00     0.030 A
ATOM     28  C   UNL     1      31.822   9.531  -3.598  1.00  0.00     0.092 A
ATOM     29  N   UNL     1      33.807   8.714  -2.529  1.00  0.00    -0.252 NA
ATOM     30  C   UNL     1      32.617   8.497  -3.148  1.00  0.00     0.140 A
BRANCH  28  31
ATOM     31  C   UNL     1      30.526   9.359  -4.205  1.00  0.00     0.040 A
ATOM     32  C   UNL     1      30.103   8.188  -4.801  1.00  0.00     0.119 A
ATOM     33  C   UNL     1      29.503  10.279  -4.488  1.00  0.00     0.145 A
ATOM     34  N   UNL     1      28.879   8.442  -5.360  1.00  0.00    -0.265 N
ATOM     35  N   UNL     1      28.525   9.747  -5.223  1.00  0.00    -0.180 NA
BRANCH  34  36
ATOM     36  C   UNL     1      28.060   7.518  -6.180  1.00  0.00     0.078 C
ATOM     37  C   UNL     1      28.834   7.099  -7.466  1.00  0.00     0.047 C
ATOM     38  C   UNL     1      26.719   8.173  -6.649  1.00  0.00     0.047 C
ATOM     39  C   UNL     1      29.105   8.283  -8.404  1.00  0.00     0.083 C
ATOM     40  C   UNL     1      26.771   8.786  -8.051  1.00  0.00     0.083 C
ATOM     41  N   UNL     1      28.083   9.328  -8.342  1.00  0.00    -0.317 NA
ATOM     42  H   UNL     1      28.076   9.853  -9.216  1.00  0.00     0.122 HD
ATOM     43  G   UNL     1      27.786   6.217  -5.336  1.00  0.00     0.000 C
ENDBRANCH  34  36
ENDBRANCH  28  31
ENDBRANCH   4  21
TORSDOF 0
ENDMDL
MODEL 6
REMARK VINA RESULT:     -10.2      1.080      1.105
REMARK SMILES Fc1cc2cc(F)c1CN1CCOC[C@@H]1CNCC1(CCNCC1)n1cc(cn1)-c1cnc3cccc-2c3n1
REMARK SMILES IDX 1 1 2 2 3 3 4 4 5 5 6 6 7 7 8 8 9 9 10 10 11 11 15 12 12 13
REMARK SMILES IDX 14 14 13 15 16 16 17 17 18 19 37 21 36 22 38 23 35 24 39 25
REMARK SMILES IDX 33 26 34 27 30 28 32 29 31 30 27 31 26 32 28 33 25 34 29 35
REMARK SMILES IDX 19 36 20 37 24 38 21 39 23 40 22 41
REMARK H PARENT 17 18 22 42
REMARK Flexibility Score:   78.900
ROOT
ATOM      1  F   UNL     1      33.661  16.887  -4.399  1.00  0.00    -0.207 F
ATOM      2  C   UNL     1      32.970  15.778  -4.097  1.00  0.00     0.131 A
ATOM      3  C   UNL     1      33.678  14.630  -3.758  1.00  0.00     0.048 A
ATOM      4  C   UNL     1      33.007  13.457  -3.368  1.00  0.00    -0.010 A
ATOM      5  C   UNL     1      31.610  13.449  -3.440  1.00  0.00     0.048 A
ATOM      6  C   UNL     1      30.916  14.607  -3.803  1.00  0.00     0.131 A
ATOM      7  F   UNL     1      29.577  14.554  -3.838  1.00  0.00    -0.207 F
ATOM      8  C   UNL     1      31.580  15.800  -4.095  1.00  0.00     0.038 A
ENDROOT
BRANCH   8   9
ATOM      9  C   UNL     1      30.840  17.084  -4.349  1.00  0.00     0.126 C
BRANCH   9  10
ATOM     10  N   UNL     1      30.853  17.426  -5.789  1.00  0.00    -0.290 NA
ATOM     11  C   UNL     1      31.530  18.735  -5.989  1.00  0.00     0.113 C
ATOM     12  C   UNL     1      29.489  17.550  -6.374  1.00  0.00     0.096 C
ATOM     13  C   UNL     1      30.594  19.964  -5.941  1.00  0.00     0.175 C
ATOM     14  C   UNL     1      28.644  18.636  -5.656  1.00  0.00     0.180 C
ATOM     15  O   UNL     1      29.434  19.721  -5.138  1.00  0.00    -0.378 OA
BRANCH  12  16
ATOM     16  C   UNL     1      28.689  16.229  -6.542  1.00  0.00     0.102 C
BRANCH  16  17
ATOM     17  N   UNL     1      27.475  16.230  -5.708  1.00  0.00    -0.313 NA
ATOM     18  H   UNL     1      26.914  17.048  -5.958  1.00  0.00     0.122 HD
BRANCH  17  19
ATOM     19  C   UNL     1      26.700  14.983  -5.832  1.00  0.00     0.111 C
ATOM     20  G   UNL     1      25.792  14.618  -4.598  1.00  0.00     0.000 C
ENDBRANCH  17  19
ENDBRANCH  16  17
ENDBRANCH  12  16
ENDBRANCH   9  10
ENDBRANCH   8   9
BRANCH   4  21
ATOM     21  C   UNL     1      33.760  12.334  -2.773  1.00  0.00     0.010 A
ATOM     22  C   UNL     1      34.960  12.547  -2.081  1.00  0.00     0.011 A
ATOM     23  C   UNL     1      33.258  11.024  -2.902  1.00  0.00     0.097 A
ATOM     24  C   UNL     1      35.637  11.474  -1.508  1.00  0.00     0.003 A
ATOM     25  N   UNL     1      32.120  10.818  -3.593  1.00  0.00    -0.244 NA
ATOM     26  C   UNL     1      33.931   9.936  -2.302  1.00  0.00     0.089 A
ATOM     27  C   UNL     1      35.115  10.183  -1.619  1.00  0.00     0.030 A
ATOM     28  C   UNL     1      31.618   9.570  -3.655  1.00  0.00     0.092 A
ATOM     29  N   UNL     1      33.439   8.677  -2.376  1.00  0.00    -0.252 NA
ATOM     30  C   UNL     1      32.270   8.516  -3.049  1.00  0.00     0.140 A
BRANCH  28  31
ATOM     31  C   UNL     1      30.348   9.467  -4.328  1.00  0.00     0.040 A
ATOM     32  C   UNL     1      29.866   8.301  -4.887  1.00  0.00     0.119 A
ATOM     33  C   UNL     1      29.421  10.446  -4.718  1.00  0.00     0.145 A
ATOM     34  N   UNL     1      28.699   8.617  -5.530  1.00  0.00    -0.265 N
ATOM     35  N   UNL     1      28.444   9.951  -5.482  1.00  0.00    -0.180 NA
BRANCH  34  36
ATOM     36  C   UNL     1      27.854   7.715  -6.349  1.00  0.00     0.078 C
ATOM     37  C   UNL     1      28.683   7.107  -7.520  1.00  0.00     0.047 C
ATOM     38  C   UNL     1      26.639   8.463  -6.991  1.00  0.00     0.047 C
ATOM     39  C   UNL     1      29.163   8.170  -8.518  1.00  0.00     0.083 C
ATOM     40  C   UNL     1      26.878   8.942  -8.426  1.00  0.00     0.083 C
ATOM     41  N   UNL     1      28.262   9.317  -8.634  1.00  0.00    -0.317 NA
ATOM     42  H   UNL     1      28.388   9.761  -9.543  1.00  0.00     0.122 HD
ATOM     43  G   UNL     1      27.366   6.529  -5.436  1.00  0.00     0.000 C
ENDBRANCH  34  36
ENDBRANCH  28  31
ENDBRANCH   4  21
TORSDOF 0
ENDMDL
MODEL 7
REMARK VINA RESULT:     -10.0      1.509      2.923
REMARK SMILES Fc1cc2cc(F)c1CN1CCOC[C@@H]1CNCC1(CCNCC1)n1cc(cn1)-c1cnc3cccc-2c3n1
REMARK SMILES IDX 1 1 2 2 3 3 4 4 5 5 6 6 7 7 8 8 9 9 10 10 11 11 15 12 12 13
REMARK SMILES IDX 14 14 13 15 16 16 17 17 18 19 37 21 36 22 38 23 35 24 39 25
REMARK SMILES IDX 33 26 34 27 30 28 32 29 31 30 27 31 26 32 28 33 25 34 29 35
REMARK SMILES IDX 19 36 20 37 24 38 21 39 23 40 22 41
REMARK H PARENT 17 18 22 42
REMARK Flexibility Score:   78.900
ROOT
ATOM      1  F   UNL     1      32.821  16.885  -4.261  1.00  0.00    -0.207 F
ATOM      2  C   UNL     1      32.542  15.587  -4.448  1.00  0.00     0.131 A
ATOM      3  C   UNL     1      33.356  14.641  -3.834  1.00  0.00     0.048 A
ATOM      4  C   UNL     1      33.073  13.268  -3.939  1.00  0.00    -0.010 A
ATOM      5  C   UNL     1      32.016  12.880  -4.769  1.00  0.00     0.048 A
ATOM      6  C   UNL     1      31.221  13.844  -5.394  1.00  0.00     0.131 A
ATOM      7  F   UNL     1      30.207  13.423  -6.164  1.00  0.00    -0.207 F
ATOM      8  C   UNL     1      31.442  15.211  -5.211  1.00  0.00     0.038 A
ENDROOT
BRANCH   8   9
ATOM      9  C   UNL     1      30.509  16.253  -5.764  1.00  0.00     0.126 C
BRANCH   9  10
ATOM     10  N   UNL     1      29.800  16.959  -4.675  1.00  0.00    -0.290 NA
ATOM     11  C   UNL     1      28.456  16.355  -4.474  1.00  0.00     0.113 C
ATOM     12  C   UNL     1      29.587  18.406  -4.956  1.00  0.00     0.096 C
ATOM     13  C   UNL     1      27.326  16.993  -5.313  1.00  0.00     0.175 C
ATOM     14  C   UNL     1      28.767  18.632  -6.255  1.00  0.00     0.180 C
ATOM     15  O   UNL     1      27.822  17.579  -6.521  1.00  0.00    -0.378 OA
BRANCH  12  16
ATOM     16  C   UNL     1      30.851  19.309  -4.921  1.00  0.00     0.102 C
BRANCH  16  17
ATOM     17  N   UNL     1      30.672  20.443  -3.999  1.00  0.00    -0.313 NA
ATOM     18  H   UNL     1      30.711  20.087  -3.041  1.00  0.00     0.122 HD
BRANCH  17  19
ATOM     19  C   UNL     1      31.659  21.515  -4.219  1.00  0.00     0.111 C
ATOM     20  G   UNL     1      31.900  21.922  -5.721  1.00  0.00     0.000 C
ENDBRANCH  17  19
ENDBRANCH  16  17
ENDBRANCH  12  16
ENDBRANCH   9  10
ENDBRANCH   8   9
BRANCH   4  21
ATOM     21  C   UNL     1      33.787  12.295  -3.087  1.00  0.00     0.010 A
ATOM     22  C   UNL     1      34.933  12.661  -2.368  1.00  0.00     0.011 A
ATOM     23  C   UNL     1      33.302  10.975  -2.993  1.00  0.00     0.097 A
ATOM     24  C   UNL     1      35.574  11.731  -1.552  1.00  0.00     0.003 A
ATOM     25  N   UNL     1      32.218  10.618  -3.708  1.00  0.00    -0.244 NA
ATOM     26  C   UNL     1      33.937  10.036  -2.148  1.00  0.00     0.089 A
ATOM     27  C   UNL     1      35.067  10.434  -1.446  1.00  0.00     0.030 A
ATOM     28  C   UNL     1      31.729   9.373  -3.562  1.00  0.00     0.092 A
ATOM     29  N   UNL     1      33.458   8.779  -2.010  1.00  0.00    -0.252 NA
ATOM     30  C   UNL     1      32.341   8.468  -2.719  1.00  0.00     0.140 A
BRANCH  28  31
ATOM     31  C   UNL     1      30.510   9.117  -4.288  1.00  0.00     0.040 A
ATOM     32  C   UNL     1      30.190   7.897  -4.848  1.00  0.00     0.119 A
ATOM     33  C   UNL     1      29.496   9.980  -4.735  1.00  0.00     0.145 A
ATOM     34  N   UNL     1      29.024   8.071  -5.547  1.00  0.00    -0.265 N
ATOM     35  N   UNL     1      28.618   9.367  -5.533  1.00  0.00    -0.180 NA
BRANCH  34  36
ATOM     36  C   UNL     1      28.325   7.069  -6.387  1.00  0.00     0.078 C
ATOM     37  C   UNL     1      29.091   6.853  -7.727  1.00  0.00     0.047 C
ATOM     38  C   UNL     1      26.874   7.517  -6.758  1.00  0.00     0.047 C
ATOM     39  C   UNL     1      29.117   8.114  -8.602  1.00  0.00     0.083 C
ATOM     40  C   UNL     1      26.753   8.204  -8.122  1.00  0.00     0.083 C
ATOM     41  N   UNL     1      27.943   8.970  -8.434  1.00  0.00    -0.317 NA
ATOM     42  H   UNL     1      27.806   9.533  -9.273  1.00  0.00     0.122 HD
ATOM     43  G   UNL     1      28.311   5.698  -5.613  1.00  0.00     0.000 C
ENDBRANCH  34  36
ENDBRANCH  28  31
ENDBRANCH   4  21
TORSDOF 0
ENDMDL
MODEL 8
REMARK VINA RESULT:     -10.0      1.247      2.217
REMARK SMILES Fc1cc2cc(F)c1CN1CCOC[C@@H]1CNCC1(CCNCC1)n1cc(cn1)-c1cnc3cccc-2c3n1
REMARK SMILES IDX 1 1 2 2 3 3 4 4 5 5 6 6 7 7 8 8 9 9 10 10 11 11 15 12 12 13
REMARK SMILES IDX 14 14 13 15 16 16 17 17 18 19 37 21 36 22 38 23 35 24 39 25
REMARK SMILES IDX 33 26 34 27 30 28 32 29 31 30 27 31 26 32 28 33 25 34 29 35
REMARK SMILES IDX 19 36 20 37 24 38 21 39 23 40 22 41
REMARK H PARENT 17 18 22 42
REMARK Flexibility Score:   78.900
ROOT
ATOM      1  F   UNL     1      30.714  16.078  -1.721  1.00  0.00    -0.207 F
ATOM      2  C   UNL     1      31.402  15.384  -2.640  1.00  0.00     0.131 A
ATOM      3  C   UNL     1      32.324  14.440  -2.201  1.00  0.00     0.048 A
ATOM      4  C   UNL     1      33.025  13.636  -3.117  1.00  0.00    -0.010 A
ATOM      5  C   UNL     1      32.848  13.892  -4.481  1.00  0.00     0.048 A
ATOM      6  C   UNL     1      31.932  14.859  -4.903  1.00  0.00     0.131 A
ATOM      7  F   UNL     1      31.784  15.054  -6.221  1.00  0.00    -0.207 F
ATOM      8  C   UNL     1      31.163  15.590  -3.995  1.00  0.00     0.038 A
ENDROOT
BRANCH   8   9
ATOM      9  C   UNL     1      30.077  16.529  -4.441  1.00  0.00     0.126 C
BRANCH   9  10
ATOM     10  N   UNL     1      30.431  17.175  -5.724  1.00  0.00    -0.290 NA
ATOM     11  C   UNL     1      31.029  18.511  -5.467  1.00  0.00     0.113 C
ATOM     12  C   UNL     1      29.256  17.390  -6.615  1.00  0.00     0.096 C
ATOM     13  C   UNL     1      30.015  19.678  -5.423  1.00  0.00     0.175 C
ATOM     14  C   UNL     1      28.171  18.273  -5.945  1.00  0.00     0.180 C
ATOM     15  O   UNL     1      28.712  19.240  -5.026  1.00  0.00    -0.378 OA
BRANCH  12  16
ATOM     16  C   UNL     1      28.635  16.116  -7.255  1.00  0.00     0.102 C
BRANCH  16  17
ATOM     17  N   UNL     1      28.369  16.316  -8.689  1.00  0.00    -0.313 NA
ATOM     18  H   UNL     1      29.124  15.875  -9.220  1.00  0.00     0.122 HD
BRANCH  17  19
ATOM     19  C   UNL     1      27.048  15.804  -9.097  1.00  0.00     0.111 C
ATOM     20  G   UNL     1      25.920  16.888  -9.271  1.00  0.00     0.000 C
ENDBRANCH  17  19
ENDBRANCH  16  17
ENDBRANCH  12  16
ENDBRANCH   9  10
ENDBRANCH   8   9
BRANCH   4  21
ATOM     21  C   UNL     1      33.807  12.476  -2.641  1.00  0.00     0.010 A
ATOM     22  C   UNL     1      35.038  12.645  -1.994  1.00  0.00     0.011 A
ATOM     23  C   UNL     1      33.300  11.176  -2.839  1.00  0.00     0.097 A
ATOM     24  C   UNL     1      35.744  11.536  -1.533  1.00  0.00     0.003 A
ATOM     25  N   UNL     1      32.131  11.015  -3.488  1.00  0.00    -0.244 NA
ATOM     26  C   UNL     1      34.003  10.051  -2.351  1.00  0.00     0.089 A
ATOM     27  C   UNL     1      35.218  10.254  -1.711  1.00  0.00     0.030 A
ATOM     28  C   UNL     1      31.628   9.773  -3.615  1.00  0.00     0.092 A
ATOM     29  N   UNL     1      33.509   8.799  -2.492  1.00  0.00    -0.252 NA
ATOM     30  C   UNL     1      32.309   8.681  -3.118  1.00  0.00     0.140 A
BRANCH  28  31
ATOM     31  C   UNL     1      30.327   9.712  -4.232  1.00  0.00     0.040 A
ATOM     32  C   UNL     1      30.011   8.874  -5.282  1.00  0.00     0.119 A
ATOM     33  C   UNL     1      29.187  10.518  -4.078  1.00  0.00     0.145 A
ATOM     34  N   UNL     1      28.734   9.180  -5.669  1.00  0.00    -0.265 N
ATOM     35  N   UNL     1      28.236  10.234  -4.971  1.00  0.00    -0.180 NA
BRANCH  34  36
ATOM     36  C   UNL     1      27.981   8.607  -6.811  1.00  0.00     0.078 C
ATOM     37  C   UNL     1      26.850   7.665  -6.299  1.00  0.00     0.047 C
ATOM     38  C   UNL     1      28.893   7.754  -7.752  1.00  0.00     0.047 C
ATOM     39  C   UNL     1      27.394   6.434  -5.562  1.00  0.00     0.083 C
ATOM     40  C   UNL     1      28.874   6.251  -7.460  1.00  0.00     0.083 C
ATOM     41  N   UNL     1      28.702   5.991  -6.044  1.00  0.00    -0.317 NA
ATOM     42  H   UNL     1      28.826   5.001  -5.837  1.00  0.00     0.122 HD
ATOM     43  G   UNL     1      27.305   9.789  -7.601  1.00  0.00     0.000 C
ENDBRANCH  34  36
ENDBRANCH  28  31
ENDBRANCH   4  21
TORSDOF 0
ENDMDL
MODEL 9
REMARK VINA RESULT:     -10.0      1.465      2.824
REMARK SMILES Fc1cc2cc(F)c1CN1CCOC[C@@H]1CNCC1(CCNCC1)n1cc(cn1)-c1cnc3cccc-2c3n1
REMARK SMILES IDX 1 1 2 2 3 3 4 4 5 5 6 6 7 7 8 8 9 9 10 10 11 11 15 12 12 13
REMARK SMILES IDX 14 14 13 15 16 16 17 17 18 19 37 21 36 22 38 23 35 24 39 25
REMARK SMILES IDX 33 26 34 27 30 28 32 29 31 30 27 31 26 32 28 33 25 34 29 35
REMARK SMILES IDX 19 36 20 37 24 38 21 39 23 40 22 41
REMARK H PARENT 17 18 22 42
REMARK Flexibility Score:   78.900
ROOT
ATOM      1  F   UNL     1      30.024  14.008  -6.303  1.00  0.00    -0.207 F
ATOM      2  C   UNL     1      30.822  14.390  -5.295  1.00  0.00     0.131 A
ATOM      3  C   UNL     1      31.542  13.414  -4.615  1.00  0.00     0.048 A
ATOM      4  C   UNL     1      32.443  13.762  -3.594  1.00  0.00    -0.010 A
ATOM      5  C   UNL     1      32.510  15.106  -3.210  1.00  0.00     0.048 A
ATOM      6  C   UNL     1      31.764  16.071  -3.893  1.00  0.00     0.131 A
ATOM      7  F   UNL     1      31.876  17.348  -3.500  1.00  0.00    -0.207 F
ATOM      8  C   UNL     1      30.942  15.738  -4.971  1.00  0.00     0.038 A
ENDROOT
BRANCH   8   9
ATOM      9  C   UNL     1      30.246  16.783  -5.799  1.00  0.00     0.126 C
BRANCH   9  10
ATOM     10  N   UNL     1      29.340  17.602  -4.963  1.00  0.00    -0.290 NA
ATOM     11  C   UNL     1      28.061  16.876  -4.748  1.00  0.00     0.113 C
ATOM     12  C   UNL     1      28.996  18.912  -5.583  1.00  0.00     0.096 C
ATOM     13  C   UNL     1      26.968  17.159  -5.804  1.00  0.00     0.175 C
ATOM     14  C   UNL     1      28.310  18.740  -6.965  1.00  0.00     0.180 C
ATOM     15  O   UNL     1      27.530  17.535  -7.066  1.00  0.00    -0.378 OA
BRANCH  12  16
ATOM     16  C   UNL     1      30.136  19.966  -5.644  1.00  0.00     0.102 C
BRANCH  16  17
ATOM     17  N   UNL     1      30.640  20.287  -4.298  1.00  0.00    -0.313 NA
ATOM     18  H   UNL     1      31.174  19.485  -3.956  1.00  0.00     0.122 HD
BRANCH  17  19
ATOM     19  C   UNL     1      31.441  21.523  -4.272  1.00  0.00     0.111 C
ATOM     20  G   UNL     1      32.302  21.806  -5.560  1.00  0.00     0.000 C
ENDBRANCH  17  19
ENDBRANCH  16  17
ENDBRANCH  12  16
ENDBRANCH   9  10
ENDBRANCH   8   9
BRANCH   4  21
ATOM     21  C   UNL     1      33.380  12.755  -3.054  1.00  0.00     0.010 A
ATOM     22  C   UNL     1      34.585  13.133  -2.446  1.00  0.00     0.011 A
ATOM     23  C   UNL     1      33.052  11.388  -3.151  1.00  0.00     0.097 A
ATOM     24  C   UNL     1      35.438  12.165  -1.923  1.00  0.00     0.003 A
ATOM     25  N   UNL     1      31.908  11.025  -3.763  1.00  0.00    -0.244 NA
ATOM     26  C   UNL     1      33.906  10.405  -2.601  1.00  0.00     0.089 A
ATOM     27  C   UNL     1      35.088  10.815  -2.001  1.00  0.00     0.030 A
ATOM     28  C   UNL     1      31.576   9.722  -3.793  1.00  0.00     0.092 A
ATOM     29  N   UNL     1      33.584   9.092  -2.644  1.00  0.00    -0.252 NA
ATOM     30  C   UNL     1      32.404   8.769  -3.235  1.00  0.00     0.140 A
BRANCH  28  31
ATOM     31  C   UNL     1      30.289   9.442  -4.377  1.00  0.00     0.040 A
ATOM     32  C   UNL     1      29.971   8.258  -5.011  1.00  0.00     0.119 A
ATOM     33  C   UNL     1      29.171  10.264  -4.600  1.00  0.00     0.145 A
ATOM     34  N   UNL     1      28.713   8.407  -5.532  1.00  0.00    -0.265 N
ATOM     35  N   UNL     1      28.233   9.663  -5.334  1.00  0.00    -0.180 NA
BRANCH  34  36
ATOM     36  C   UNL     1      27.969   7.437  -6.371  1.00  0.00     0.078 C
ATOM     37  C   UNL     1      28.823   7.020  -7.606  1.00  0.00     0.047 C
ATOM     38  C   UNL     1      26.632   8.033  -6.921  1.00  0.00     0.047 C
ATOM     39  C   UNL     1      29.099   8.193  -8.557  1.00  0.00     0.083 C
ATOM     40  C   UNL     1      26.734   8.618  -8.333  1.00  0.00     0.083 C
ATOM     41  N   UNL     1      28.039   9.201  -8.570  1.00  0.00    -0.317 NA
ATOM     42  H   UNL     1      28.058   9.707  -9.455  1.00  0.00     0.122 HD
ATOM     43  G   UNL     1      27.699   6.145  -5.512  1.00  0.00     0.000 C
ENDBRANCH  34  36
ENDBRANCH  28  31
ENDBRANCH   4  21
TORSDOF 0
ENDMDL
