MODEL 1
REMARK VINA RESULT:      -8.3      0.000      0.000
REMARK SMILES O=C1Nc2c[nH]nc2-c2nc3ccc(cc3[nH]2)CN2CCOC[C@@H]2CCOCCC2(CC2)N1
REMARK SMILES IDX 18 1 14 2 9 3 10 4 17 5 11 6 16 7 12 8 15 9 13 10 8 12 4 13
REMARK SMILES IDX 5 14 6 15 7 16 3 18 1 19 2 20 33 21 30 24 31 25 32 26 29 27
REMARK SMILES IDX 19 29 20 30 24 31 21 32 23 33 22 34 25 35 26 36 27 37 28 38
REMARK H PARENT 17 11 6 17 3 22 33 23
REMARK Flexibility Score:  107.900
ROOT
ATOM      1  C   UNL     1      32.653  12.316  -2.757  1.00  0.00     0.120 C
ENDROOT
BRANCH   1   2
ATOM      2  C   UNL     1      32.663  13.430  -3.788  1.00  0.00    -0.032 A
ATOM      3  C   UNL     1      32.701  17.693  -5.346  1.00  0.00     0.161 A
ATOM      4  N   UNL     1      32.345  16.784  -6.243  1.00  0.00    -0.227 NA
ATOM      5  N   UNL     1      33.201  17.075  -4.236  1.00  0.00    -0.337 N
ATOM      6  C   UNL     1      32.418  15.576  -5.591  1.00  0.00     0.089 A
ATOM      7  C   UNL     1      32.970  15.734  -4.331  1.00  0.00     0.066 A
ATOM      8  C   UNL     1      32.010  14.295  -5.989  1.00  0.00     0.031 A
ATOM      9  C   UNL     1      33.162  14.692  -3.427  1.00  0.00     0.033 A
ATOM     10  C   UNL     1      32.110  13.237  -5.066  1.00  0.00     0.007 A
ATOM     11  H   UNL     1      33.643  17.546  -3.459  1.00  0.00     0.168 HD
BRANCH   3  12
ATOM     12  C   UNL     1      32.516  19.257  -5.525  1.00  0.00     0.151 A
ATOM     13  C   UNL     1      31.445  20.017  -6.113  1.00  0.00     0.092 A
ATOM     14  C   UNL     1      31.916  21.314  -6.114  1.00  0.00     0.132 A
ATOM     15  N   UNL     1      33.147  21.283  -5.538  1.00  0.00    -0.283 N
ATOM     16  N   UNL     1      33.549  20.057  -5.210  1.00  0.00    -0.170 NA
ATOM     17  H   UNL     1      33.784  22.054  -5.365  1.00  0.00     0.189 HD
BRANCH  13  18
ATOM     18  N   UNL     1      30.236  19.728  -6.733  1.00  0.00    -0.304 N
ATOM     19  O   UNL     1      28.955  18.900  -5.020  1.00  0.00    -0.248 OA
ATOM     20  C   UNL     1      29.193  19.009  -6.218  1.00  0.00     0.319 C
ATOM     21  N   UNL     1      28.448  18.397  -7.205  1.00  0.00    -0.332 N
ATOM     22  H   UNL     1      30.051  20.215  -7.598  1.00  0.00     0.172 HD
ATOM     23  H   UNL     1      28.828  18.395  -8.141  1.00  0.00     0.165 HD
BRANCH  21  24
ATOM     24  C   UNL     1      27.283  17.562  -6.963  1.00  0.00     0.044 C
ATOM     25  C   UNL     1      25.971  18.272  -6.693  1.00  0.00     0.031 C
ATOM     26  C   UNL     1      26.190  17.607  -8.018  1.00  0.00     0.031 C
BRANCH  24  27
ATOM     27  C   UNL     1      27.569  16.269  -6.190  1.00  0.00     0.057 C
ATOM     28  G   UNL     1      26.499  15.746  -5.230  1.00  0.00     0.000 C
ENDBRANCH  24  27
ENDBRANCH  21  24
ENDBRANCH  13  18
ENDBRANCH   3  12
ENDBRANCH   1   2
BRANCH   1  29
ATOM     29  N   UNL     1      33.046  11.035  -3.371  1.00  0.00    -0.291 NA
ATOM     30  C   UNL     1      34.391  10.597  -2.961  1.00  0.00     0.113 C
ATOM     31  C   UNL     1      32.034   9.953  -3.201  1.00  0.00     0.085 C
ATOM     32  C   UNL     1      34.353   9.609  -1.790  1.00  0.00     0.175 C
ATOM     33  C   UNL     1      32.702   8.557  -3.170  1.00  0.00     0.179 C
ATOM     34  O   UNL     1      33.618   8.412  -2.076  1.00  0.00    -0.378 OA
BRANCH  31  35
ATOM     35  C   UNL     1      30.999  10.055  -4.336  1.00  0.00     0.050 C
BRANCH  35  36
ATOM     36  C   UNL     1      29.637  10.602  -3.907  1.00  0.00     0.162 C
BRANCH  36  37
ATOM     37  O   UNL     1      28.579   9.973  -4.643  1.00  0.00    -0.381 OA
BRANCH  37  38
ATOM     38  C   UNL     1      29.041   9.185  -5.748  1.00  0.00     0.162 C
ATOM     39  G   UNL     1      28.281   7.860  -5.817  1.00  0.00     0.000 C
ENDBRANCH  37  38
ENDBRANCH  36  37
ENDBRANCH  35  36
ENDBRANCH  31  35
ENDBRANCH   1  29
TORSDOF 0
ENDMDL
MODEL 2
REMARK VINA RESULT:      -8.2      1.908      2.840
REMARK SMILES O=C1Nc2c[nH]nc2-c2nc3ccc(cc3[nH]2)CN2CCOC[C@@H]2CCOCCC2(CC2)N1
REMARK SMILES IDX 18 1 14 2 9 3 10 4 17 5 11 6 16 7 12 8 15 9 13 10 8 12 4 13
REMARK SMILES IDX 5 14 6 15 7 16 3 18 1 19 2 20 33 21 30 24 31 25 32 26 29 27
REMARK SMILES IDX 19 29 20 30 24 31 21 32 23 33 22 34 25 35 26 36 27 37 28 38
REMARK H PARENT 17 11 6 17 3 22 33 23
REMARK Flexibility Score:  107.900
ROOT
ATOM      1  C   UNL     1      32.908  13.609  -2.415  1.00  0.00     0.120 C
ENDROOT
BRANCH   1   2
ATOM      2  C   UNL     1      32.498  14.517  -3.559  1.00  0.00    -0.032 A
ATOM      3  C   UNL     1      30.336  17.928  -5.631  1.00  0.00     0.161 A
ATOM      4  N   UNL     1      30.841  17.019  -6.453  1.00  0.00    -0.227 NA
ATOM      5  N   UNL     1      30.811  17.723  -4.367  1.00  0.00    -0.337 N
ATOM      6  C   UNL     1      31.465  16.098  -5.644  1.00  0.00     0.089 A
ATOM      7  C   UNL     1      31.471  16.530  -4.329  1.00  0.00     0.066 A
ATOM      8  C   UNL     1      32.031  14.852  -5.945  1.00  0.00     0.031 A
ATOM      9  C   UNL     1      32.021  15.807  -3.273  1.00  0.00     0.033 A
ATOM     10  C   UNL     1      32.516  14.059  -4.889  1.00  0.00     0.007 A
ATOM     11  H   UNL     1      30.665  18.345  -3.584  1.00  0.00     0.168 HD
BRANCH   3  12
ATOM     12  C   UNL     1      29.294  19.046  -6.053  1.00  0.00     0.151 A
ATOM     13  C   UNL     1      27.946  18.938  -6.545  1.00  0.00     0.092 A
ATOM     14  C   UNL     1      27.606  20.234  -6.878  1.00  0.00     0.132 A
ATOM     15  N   UNL     1      28.677  21.011  -6.563  1.00  0.00    -0.283 N
ATOM     16  N   UNL     1      29.718  20.321  -6.103  1.00  0.00    -0.170 NA
ATOM     17  H   UNL     1      28.780  22.016  -6.664  1.00  0.00     0.189 HD
BRANCH  13  18
ATOM     18  N   UNL     1      27.071  17.903  -6.848  1.00  0.00    -0.304 N
ATOM     19  O   UNL     1      27.228  16.532  -5.016  1.00  0.00    -0.248 OA
ATOM     20  C   UNL     1      26.947  16.707  -6.196  1.00  0.00     0.319 C
ATOM     21  N   UNL     1      26.486  15.708  -7.029  1.00  0.00    -0.332 N
ATOM     22  H   UNL     1      26.357  18.108  -7.532  1.00  0.00     0.172 HD
ATOM     23  H   UNL     1      26.458  15.905  -8.020  1.00  0.00     0.165 HD
BRANCH  21  24
ATOM     24  C   UNL     1      26.261  14.332  -6.622  1.00  0.00     0.044 C
ATOM     25  C   UNL     1      25.325  14.104  -5.451  1.00  0.00     0.031 C
ATOM     26  C   UNL     1      24.859  13.784  -6.839  1.00  0.00     0.031 C
BRANCH  24  27
ATOM     27  C   UNL     1      27.484  13.415  -6.747  1.00  0.00     0.057 C
ATOM     28  G   UNL     1      28.590  13.533  -5.698  1.00  0.00     0.000 C
ENDBRANCH  24  27
ENDBRANCH  21  24
ENDBRANCH  13  18
ENDBRANCH   3  12
ENDBRANCH   1   2
BRANCH   1  29
ATOM     29  N   UNL     1      33.838  12.566  -2.884  1.00  0.00    -0.291 NA
ATOM     30  C   UNL     1      35.240  12.861  -2.544  1.00  0.00     0.113 C
ATOM     31  C   UNL     1      33.445  11.186  -2.478  1.00  0.00     0.085 C
ATOM     32  C   UNL     1      35.687  12.167  -1.251  1.00  0.00     0.175 C
ATOM     33  C   UNL     1      34.684  10.272  -2.321  1.00  0.00     0.179 C
ATOM     34  O   UNL     1      35.584  10.738  -1.306  1.00  0.00    -0.378 OA
BRANCH  31  35
ATOM     35  C   UNL     1      32.460  10.622  -3.517  1.00  0.00     0.050 C
BRANCH  35  36
ATOM     36  C   UNL     1      32.045   9.169  -3.276  1.00  0.00     0.162 C
BRANCH  36  37
ATOM     37  O   UNL     1      30.766   8.898  -3.866  1.00  0.00    -0.381 OA
BRANCH  37  38
ATOM     38  C   UNL     1      30.404   9.827  -4.896  1.00  0.00     0.162 C
ATOM     39  G   UNL     1      28.884   9.984  -4.965  1.00  0.00     0.000 C
ENDBRANCH  37  38
ENDBRANCH  36  37
ENDBRANCH  35  36
ENDBRANCH  31  35
ENDBRANCH   1  29
TORSDOF 0
ENDMDL
MODEL 3
REMARK VINA RESULT:      -8.2      1.746      2.263
REMARK SMILES O=C1Nc2c[nH]nc2-c2nc3ccc(cc3[nH]2)CN2CCOC[C@@H]2CCOCCC2(CC2)N1
REMARK SMILES IDX 18 1 14 2 9 3 10 4 17 5 11 6 16 7 12 8 15 9 13 10 8 12 4 13
REMARK SMILES IDX 5 14 6 15 7 16 3 18 1 19 2 20 33 21 30 24 31 25 32 26 29 27
REMARK SMILES IDX 19 29 20 30 24 31 21 32 23 33 22 34 25 35 26 36 27 37 28 38
REMARK H PARENT 17 11 6 17 3 22 33 23
REMARK Flexibility Score:  107.900
ROOT
ATOM      1  C   UNL     1      32.604  13.488  -2.584  1.00  0.00     0.120 C
ENDROOT
BRANCH   1   2
ATOM      2  C   UNL     1      32.393  14.553  -3.643  1.00  0.00    -0.032 A
ATOM      3  C   UNL     1      30.909  18.459  -5.417  1.00  0.00     0.161 A
ATOM      4  N   UNL     1      31.281  17.556  -6.313  1.00  0.00    -0.227 NA
ATOM      5  N   UNL     1      31.300  18.061  -4.170  1.00  0.00    -0.337 N
ATOM      6  C   UNL     1      31.712  16.472  -5.585  1.00  0.00     0.089 A
ATOM      7  C   UNL     1      31.747  16.774  -4.234  1.00  0.00     0.066 A
ATOM      8  C   UNL     1      32.069  15.179  -5.994  1.00  0.00     0.031 A
ATOM      9  C   UNL     1      32.131  15.874  -3.243  1.00  0.00     0.033 A
ATOM     10  C   UNL     1      32.378  14.222  -5.010  1.00  0.00     0.007 A
ATOM     11  H   UNL     1      31.235  18.625  -3.334  1.00  0.00     0.168 HD
BRANCH   3  12
ATOM     12  C   UNL     1      30.086  19.773  -5.748  1.00  0.00     0.151 A
ATOM     13  C   UNL     1      28.996  19.995  -6.660  1.00  0.00     0.092 A
ATOM     14  C   UNL     1      28.800  21.361  -6.622  1.00  0.00     0.132 A
ATOM     15  N   UNL     1      29.696  21.858  -5.729  1.00  0.00    -0.283 N
ATOM     16  N   UNL     1      30.506  20.935  -5.218  1.00  0.00    -0.170 NA
ATOM     17  H   UNL     1      29.833  22.822  -5.441  1.00  0.00     0.189 HD
BRANCH  13  18
ATOM     18  N   UNL     1      28.277  19.227  -7.567  1.00  0.00    -0.304 N
ATOM     19  O   UNL     1      26.894  17.987  -6.222  1.00  0.00    -0.248 OA
ATOM     20  C   UNL     1      27.472  18.157  -7.290  1.00  0.00     0.319 C
ATOM     21  N   UNL     1      27.400  17.274  -8.348  1.00  0.00    -0.332 N
ATOM     22  H   UNL     1      28.233  19.578  -8.513  1.00  0.00     0.172 HD
ATOM     23  H   UNL     1      28.050  17.407  -9.110  1.00  0.00     0.165 HD
BRANCH  21  24
ATOM     24  C   UNL     1      26.627  16.044  -8.346  1.00  0.00     0.044 C
ATOM     25  C   UNL     1      25.207  16.121  -8.872  1.00  0.00     0.031 C
ATOM     26  C   UNL     1      26.267  15.470  -9.707  1.00  0.00     0.031 C
BRANCH  24  27
ATOM     27  C   UNL     1      26.899  15.115  -7.156  1.00  0.00     0.057 C
ATOM     28  G   UNL     1      28.347  14.732  -6.850  1.00  0.00     0.000 C
ENDBRANCH  24  27
ENDBRANCH  21  24
ENDBRANCH  13  18
ENDBRANCH   3  12
ENDBRANCH   1   2
BRANCH   1  29
ATOM     29  N   UNL     1      33.625  12.517  -3.017  1.00  0.00    -0.291 NA
ATOM     30  C   UNL     1      34.992  12.936  -2.666  1.00  0.00     0.113 C
ATOM     31  C   UNL     1      33.344  11.118  -2.585  1.00  0.00     0.085 C
ATOM     32  C   UNL     1      35.477  12.312  -1.353  1.00  0.00     0.175 C
ATOM     33  C   UNL     1      34.653  10.315  -2.391  1.00  0.00     0.179 C
ATOM     34  O   UNL     1      35.496  10.878  -1.375  1.00  0.00    -0.378 OA
BRANCH  31  35
ATOM     35  C   UNL     1      32.424  10.450  -3.622  1.00  0.00     0.050 C
BRANCH  35  36
ATOM     36  C   UNL     1      31.865   9.091  -3.195  1.00  0.00     0.162 C
BRANCH  36  37
ATOM     37  O   UNL     1      30.951   8.584  -4.177  1.00  0.00    -0.381 OA
BRANCH  37  38
ATOM     38  C   UNL     1      30.278   9.611  -4.916  1.00  0.00     0.162 C
ATOM     39  G   UNL     1      29.422   9.000  -6.026  1.00  0.00     0.000 C
ENDBRANCH  37  38
ENDBRANCH  36  37
ENDBRANCH  35  36
ENDBRANCH  31  35
ENDBRANCH   1  29
TORSDOF 0
ENDMDL
MODEL 4
REMARK VINA RESULT:      -8.1      2.223      3.401
REMARK SMILES O=C1Nc2c[nH]nc2-c2nc3ccc(cc3[nH]2)CN2CCOC[C@@H]2CCOCCC2(CC2)N1
REMARK SMILES IDX 18 1 14 2 9 3 10 4 17 5 11 6 16 7 12 8 15 9 13 10 8 12 4 13
REMARK SMILES IDX 5 14 6 15 7 16 3 18 1 19 2 20 33 21 30 24 31 25 32 26 29 27
REMARK SMILES IDX 19 29 20 30 24 31 21 32 23 33 22 34 25 35 26 36 27 37 28 38
REMARK H PARENT 17 11 6 17 3 22 33 23
REMARK Flexibility Score:  107.900
ROOT
ATOM      1  C   UNL     1      32.758  14.279  -2.363  1.00  0.00     0.120 C
ENDROOT
BRANCH   1   2
ATOM      2  C   UNL     1      32.412  15.462  -3.248  1.00  0.00    -0.032 A
ATOM      3  C   UNL     1      29.752  18.414  -5.441  1.00  0.00     0.161 A
ATOM      4  N   UNL     1      31.007  18.387  -5.865  1.00  0.00    -0.227 NA
ATOM      5  N   UNL     1      29.642  17.708  -4.277  1.00  0.00    -0.337 N
ATOM      6  C   UNL     1      31.644  17.462  -5.071  1.00  0.00     0.089 A
ATOM      7  C   UNL     1      30.807  17.033  -4.055  1.00  0.00     0.066 A
ATOM      8  C   UNL     1      32.928  16.908  -5.162  1.00  0.00     0.031 A
ATOM      9  C   UNL     1      31.164  16.088  -3.097  1.00  0.00     0.033 A
ATOM     10  C   UNL     1      33.288  15.887  -4.263  1.00  0.00     0.007 A
ATOM     11  H   UNL     1      28.816  17.670  -3.697  1.00  0.00     0.168 HD
BRANCH   3  12
ATOM     12  C   UNL     1      28.556  19.118  -6.207  1.00  0.00     0.151 A
ATOM     13  C   UNL     1      27.595  18.590  -7.139  1.00  0.00     0.092 A
ATOM     14  C   UNL     1      26.907  19.703  -7.578  1.00  0.00     0.132 A
ATOM     15  N   UNL     1      27.424  20.769  -6.912  1.00  0.00    -0.283 N
ATOM     16  N   UNL     1      28.441  20.454  -6.113  1.00  0.00    -0.170 NA
ATOM     17  H   UNL     1      27.156  21.746  -6.976  1.00  0.00     0.189 HD
BRANCH  13  18
ATOM     18  N   UNL     1      27.342  17.356  -7.724  1.00  0.00    -0.304 N
ATOM     19  O   UNL     1      26.155  16.245  -6.106  1.00  0.00    -0.248 OA
ATOM     20  C   UNL     1      26.858  16.233  -7.110  1.00  0.00     0.319 C
ATOM     21  N   UNL     1      27.272  15.078  -7.741  1.00  0.00    -0.332 N
ATOM     22  H   UNL     1      27.387  17.321  -8.732  1.00  0.00     0.172 HD
ATOM     23  H   UNL     1      27.993  15.164  -8.444  1.00  0.00     0.165 HD
BRANCH  21  24
ATOM     24  C   UNL     1      26.923  13.733  -7.315  1.00  0.00     0.044 C
ATOM     25  C   UNL     1      25.489  13.291  -7.534  1.00  0.00     0.031 C
ATOM     26  C   UNL     1      26.571  12.746  -8.416  1.00  0.00     0.031 C
BRANCH  24  27
ATOM     27  C   UNL     1      27.629  13.259  -6.039  1.00  0.00     0.057 C
ATOM     28  G   UNL     1      29.033  13.790  -5.746  1.00  0.00     0.000 C
ENDBRANCH  24  27
ENDBRANCH  21  24
ENDBRANCH  13  18
ENDBRANCH   3  12
ENDBRANCH   1   2
BRANCH   1  29
ATOM     29  N   UNL     1      33.602  13.313  -3.090  1.00  0.00    -0.291 NA
ATOM     30  C   UNL     1      35.012  13.360  -2.668  1.00  0.00     0.113 C
ATOM     31  C   UNL     1      33.065  11.923  -3.083  1.00  0.00     0.085 C
ATOM     32  C   UNL     1      35.341  12.300  -1.610  1.00  0.00     0.175 C
ATOM     33  C   UNL     1      34.205  10.879  -3.169  1.00  0.00     0.179 C
ATOM     34  O   UNL     1      35.105  10.957  -2.055  1.00  0.00    -0.378 OA
BRANCH  31  35
ATOM     35  C   UNL     1      32.071  11.765  -4.247  1.00  0.00     0.050 C
BRANCH  35  36
ATOM     36  C   UNL     1      30.843  10.912  -3.924  1.00  0.00     0.162 C
BRANCH  36  37
ATOM     37  O   UNL     1      30.360  10.246  -5.099  1.00  0.00    -0.381 OA
BRANCH  37  38
ATOM     38  C   UNL     1      30.287   8.822  -4.960  1.00  0.00     0.162 C
ATOM     39  G   UNL     1      31.234   8.341  -3.860  1.00  0.00     0.000 C
ENDBRANCH  37  38
ENDBRANCH  36  37
ENDBRANCH  35  36
ENDBRANCH  31  35
ENDBRANCH   1  29
TORSDOF 0
ENDMDL
MODEL 5
REMARK VINA RESULT:      -8.1      1.301      1.516
REMARK SMILES O=C1Nc2c[nH]nc2-c2nc3ccc(cc3[nH]2)CN2CCOC[C@@H]2CCOCCC2(CC2)N1
REMARK SMILES IDX 18 1 14 2 9 3 10 4 17 5 11 6 16 7 12 8 15 9 13 10 8 12 4 13
REMARK SMILES IDX 5 14 6 15 7 16 3 18 1 19 2 20 33 21 30 24 31 25 32 26 29 27
REMARK SMILES IDX 19 29 20 30 24 31 21 32 23 33 22 34 25 35 26 36 27 37 28 38
REMARK H PARENT 17 11 6 17 3 22 33 23
REMARK Flexibility Score:  107.900
ROOT
ATOM      1  C   UNL     1      33.129  12.596  -2.328  1.00  0.00     0.120 C
ENDROOT
BRANCH   1   2
ATOM      2  C   UNL     1      32.849  13.646  -3.387  1.00  0.00    -0.032 A
ATOM      3  C   UNL     1      31.637  17.689  -5.058  1.00  0.00     0.161 A
ATOM      4  N   UNL     1      31.639  16.706  -5.947  1.00  0.00    -0.227 NA
ATOM      5  N   UNL     1      32.239  17.271  -3.906  1.00  0.00    -0.337 N
ATOM      6  C   UNL     1      32.050  15.588  -5.259  1.00  0.00     0.089 A
ATOM      7  C   UNL     1      32.448  15.924  -3.976  1.00  0.00     0.066 A
ATOM      8  C   UNL     1      32.090  14.241  -5.643  1.00  0.00     0.031 A
ATOM      9  C   UNL     1      32.903  15.005  -3.035  1.00  0.00     0.033 A
ATOM     10  C   UNL     1      32.462  13.277  -4.687  1.00  0.00     0.007 A
ATOM     11  H   UNL     1      32.463  17.864  -3.119  1.00  0.00     0.168 HD
BRANCH   3  12
ATOM     12  C   UNL     1      30.981  19.113  -5.289  1.00  0.00     0.151 A
ATOM     13  C   UNL     1      29.913  19.527  -6.161  1.00  0.00     0.092 A
ATOM     14  C   UNL     1      29.891  20.901  -6.035  1.00  0.00     0.132 A
ATOM     15  N   UNL     1      30.855  21.225  -5.133  1.00  0.00    -0.283 N
ATOM     16  N   UNL     1      31.551  20.177  -4.698  1.00  0.00    -0.170 NA
ATOM     17  H   UNL     1      31.117  22.144  -4.790  1.00  0.00     0.189 HD
BRANCH  13  18
ATOM     18  N   UNL     1      29.091  18.913  -7.097  1.00  0.00    -0.304 N
ATOM     19  O   UNL     1      27.479  17.918  -5.803  1.00  0.00    -0.248 OA
ATOM     20  C   UNL     1      28.101  17.999  -6.856  1.00  0.00     0.319 C
ATOM     21  N   UNL     1      27.898  17.160  -7.932  1.00  0.00    -0.332 N
ATOM     22  H   UNL     1      29.131  19.281  -8.036  1.00  0.00     0.172 HD
ATOM     23  H   UNL     1      28.579  17.187  -8.679  1.00  0.00     0.165 HD
BRANCH  21  24
ATOM     24  C   UNL     1      26.919  16.087  -7.970  1.00  0.00     0.044 C
ATOM     25  C   UNL     1      25.514  16.451  -8.408  1.00  0.00     0.031 C
ATOM     26  C   UNL     1      26.403  15.691  -9.344  1.00  0.00     0.031 C
BRANCH  24  27
ATOM     27  C   UNL     1      27.073  15.037  -6.863  1.00  0.00     0.057 C
ATOM     28  G   UNL     1      28.463  14.456  -6.602  1.00  0.00     0.000 C
ENDBRANCH  24  27
ENDBRANCH  21  24
ENDBRANCH  13  18
ENDBRANCH   3  12
ENDBRANCH   1   2
BRANCH   1  29
ATOM     29  N   UNL     1      33.620  11.351  -2.946  1.00  0.00    -0.291 NA
ATOM     30  C   UNL     1      35.025  11.065  -2.608  1.00  0.00     0.113 C
ATOM     31  C   UNL     1      32.739  10.173  -2.704  1.00  0.00     0.085 C
ATOM     32  C   UNL     1      35.157  10.101  -1.423  1.00  0.00     0.175 C
ATOM     33  C   UNL     1      33.551   8.855  -2.692  1.00  0.00     0.179 C
ATOM     34  O   UNL     1      34.537   8.829  -1.650  1.00  0.00    -0.378 OA
BRANCH  31  35
ATOM     35  C   UNL     1      31.638  10.144  -3.779  1.00  0.00     0.050 C
BRANCH  35  36
ATOM     36  C   UNL     1      31.092   8.750  -4.092  1.00  0.00     0.162 C
BRANCH  36  37
ATOM     37  O   UNL     1      30.028   8.821  -5.052  1.00  0.00    -0.381 OA
BRANCH  37  38
ATOM     38  C   UNL     1      29.244  10.016  -4.948  1.00  0.00     0.162 C
ATOM     39  G   UNL     1      27.796   9.744  -5.358  1.00  0.00     0.000 C
ENDBRANCH  37  38
ENDBRANCH  36  37
ENDBRANCH  35  36
ENDBRANCH  31  35
ENDBRANCH   1  29
TORSDOF 0
ENDMDL
MODEL 6
REMARK VINA RESULT:      -8.1      1.738      3.557
REMARK SMILES O=C1Nc2c[nH]nc2-c2nc3ccc(cc3[nH]2)CN2CCOC[C@@H]2CCOCCC2(CC2)N1
REMARK SMILES IDX 18 1 14 2 9 3 10 4 17 5 11 6 16 7 12 8 15 9 13 10 8 12 4 13
REMARK SMILES IDX 5 14 6 15 7 16 3 18 1 19 2 20 33 21 30 24 31 25 32 26 29 27
REMARK SMILES IDX 19 29 20 30 24 31 21 32 23 33 22 34 25 35 26 36 27 37 28 38
REMARK H PARENT 17 11 6 17 3 22 33 23
REMARK Flexibility Score:  107.900
ROOT
ATOM      1  C   UNL     1      32.192  11.403  -4.604  1.00  0.00     0.120 C
ENDROOT
BRANCH   1   2
ATOM      2  C   UNL     1      31.951  12.814  -4.101  1.00  0.00    -0.032 A
ATOM      3  C   UNL     1      30.890  17.220  -4.342  1.00  0.00     0.161 A
ATOM      4  N   UNL     1      31.522  16.868  -3.231  1.00  0.00    -0.227 NA
ATOM      5  N   UNL     1      30.504  16.104  -5.028  1.00  0.00    -0.337 N
ATOM      6  C   UNL     1      31.730  15.513  -3.340  1.00  0.00     0.089 A
ATOM      7  C   UNL     1      31.084  15.009  -4.456  1.00  0.00     0.066 A
ATOM      8  C   UNL     1      32.482  14.636  -2.546  1.00  0.00     0.031 A
ATOM      9  C   UNL     1      31.119  13.671  -4.840  1.00  0.00     0.033 A
ATOM     10  C   UNL     1      32.609  13.296  -2.955  1.00  0.00     0.007 A
ATOM     11  H   UNL     1      29.911  16.101  -5.845  1.00  0.00     0.168 HD
BRANCH   3  12
ATOM     12  C   UNL     1      30.668  18.715  -4.818  1.00  0.00     0.151 A
ATOM     13  C   UNL     1      29.944  19.248  -5.942  1.00  0.00     0.092 A
ATOM     14  C   UNL     1      30.235  20.597  -5.920  1.00  0.00     0.132 A
ATOM     15  N   UNL     1      31.036  20.805  -4.842  1.00  0.00    -0.283 N
ATOM     16  N   UNL     1      31.345  19.690  -4.185  1.00  0.00    -0.170 NA
ATOM     17  H   UNL     1      31.437  21.677  -4.511  1.00  0.00     0.189 HD
BRANCH  13  18
ATOM     18  N   UNL     1      29.212  18.724  -7.000  1.00  0.00    -0.304 N
ATOM     19  O   UNL     1      27.240  18.096  -6.011  1.00  0.00    -0.248 OA
ATOM     20  C   UNL     1      28.050  18.006  -6.926  1.00  0.00     0.319 C
ATOM     21  N   UNL     1      27.903  17.147  -7.996  1.00  0.00    -0.332 N
ATOM     22  H   UNL     1      29.489  19.020  -7.924  1.00  0.00     0.172 HD
ATOM     23  H   UNL     1      28.703  17.013  -8.598  1.00  0.00     0.165 HD
BRANCH  21  24
ATOM     24  C   UNL     1      26.773  16.254  -8.190  1.00  0.00     0.044 C
ATOM     25  C   UNL     1      25.459  16.885  -8.605  1.00  0.00     0.031 C
ATOM     26  C   UNL     1      26.257  16.115  -9.613  1.00  0.00     0.031 C
BRANCH  24  27
ATOM     27  C   UNL     1      26.721  15.065  -7.222  1.00  0.00     0.057 C
ATOM     28  G   UNL     1      28.021  14.320  -6.916  1.00  0.00     0.000 C
ENDBRANCH  24  27
ENDBRANCH  21  24
ENDBRANCH  13  18
ENDBRANCH   3  12
ENDBRANCH   1   2
BRANCH   1  29
ATOM     29  N   UNL     1      31.313  10.445  -3.909  1.00  0.00    -0.291 NA
ATOM     30  C   UNL     1      30.015  10.273  -4.583  1.00  0.00     0.113 C
ATOM     31  C   UNL     1      31.965   9.137  -3.615  1.00  0.00     0.085 C
ATOM     32  C   UNL     1      29.998   9.056  -5.517  1.00  0.00     0.175 C
ATOM     33  C   UNL     1      30.930   7.986  -3.586  1.00  0.00     0.179 C
ATOM     34  O   UNL     1      30.262   7.818  -4.844  1.00  0.00    -0.378 OA
BRANCH  31  35
ATOM     35  C   UNL     1      32.722   9.245  -2.279  1.00  0.00     0.050 C
BRANCH  35  36
ATOM     36  C   UNL     1      34.244   9.154  -2.402  1.00  0.00     0.162 C
BRANCH  36  37
ATOM     37  O   UNL     1      34.833  10.461  -2.433  1.00  0.00    -0.381 OA
BRANCH  37  38
ATOM     38  C   UNL     1      35.507  10.813  -1.218  1.00  0.00     0.162 C
ATOM     39  G   UNL     1      35.737  12.324  -1.151  1.00  0.00     0.000 C
ENDBRANCH  37  38
ENDBRANCH  36  37
ENDBRANCH  35  36
ENDBRANCH  31  35
ENDBRANCH   1  29
TORSDOF 0
ENDMDL
MODEL 7
REMARK VINA RESULT:      -8.0      0.835      1.049
REMARK SMILES O=C1Nc2c[nH]nc2-c2nc3ccc(cc3[nH]2)CN2CCOC[C@@H]2CCOCCC2(CC2)N1
REMARK SMILES IDX 18 1 14 2 9 3 10 4 17 5 11 6 16 7 12 8 15 9 13 10 8 12 4 13
REMARK SMILES IDX 5 14 6 15 7 16 3 18 1 19 2 20 33 21 30 24 31 25 32 26 29 27
REMARK SMILES IDX 19 29 20 30 24 31 21 32 23 33 22 34 25 35 26 36 27 37 28 38
REMARK H PARENT 17 11 6 17 3 22 33 23
REMARK Flexibility Score:  107.900
ROOT
ATOM      1  C   UNL     1      32.047  12.073  -2.872  1.00  0.00     0.120 C
ENDROOT
BRANCH   1   2
ATOM      2  C   UNL     1      32.263  13.196  -3.869  1.00  0.00    -0.032 A
ATOM      3  C   UNL     1      32.712  17.471  -5.329  1.00  0.00     0.161 A
ATOM      4  N   UNL     1      32.467  16.587  -6.286  1.00  0.00    -0.227 NA
ATOM      5  N   UNL     1      33.007  16.821  -4.165  1.00  0.00    -0.337 N
ATOM      6  C   UNL     1      32.390  15.369  -5.651  1.00  0.00     0.089 A
ATOM      7  C   UNL     1      32.741  15.491  -4.318  1.00  0.00     0.066 A
ATOM      8  C   UNL     1      32.000  14.111  -6.131  1.00  0.00     0.031 A
ATOM      9  C   UNL     1      32.748  14.433  -3.413  1.00  0.00     0.033 A
ATOM     10  C   UNL     1      31.912  13.041  -5.222  1.00  0.00     0.007 A
ATOM     11  H   UNL     1      33.338  17.265  -3.320  1.00  0.00     0.168 HD
BRANCH   3  12
ATOM     12  C   UNL     1      32.619  19.042  -5.508  1.00  0.00     0.151 A
ATOM     13  C   UNL     1      31.594  19.864  -6.096  1.00  0.00     0.092 A
ATOM     14  C   UNL     1      32.140  21.132  -6.098  1.00  0.00     0.132 A
ATOM     15  N   UNL     1      33.367  21.028  -5.522  1.00  0.00    -0.283 N
ATOM     16  N   UNL     1      33.697  19.782  -5.194  1.00  0.00    -0.170 NA
ATOM     17  H   UNL     1      34.048  21.761  -5.349  1.00  0.00     0.189 HD
BRANCH  13  18
ATOM     18  N   UNL     1      30.370  19.646  -6.715  1.00  0.00    -0.304 N
ATOM     19  O   UNL     1      29.080  18.773  -5.031  1.00  0.00    -0.248 OA
ATOM     20  C   UNL     1      29.309  18.935  -6.224  1.00  0.00     0.319 C
ATOM     21  N   UNL     1      28.534  18.399  -7.232  1.00  0.00    -0.332 N
ATOM     22  H   UNL     1      30.191  20.183  -7.551  1.00  0.00     0.172 HD
ATOM     23  H   UNL     1      28.904  18.433  -8.172  1.00  0.00     0.165 HD
BRANCH  21  24
ATOM     24  C   UNL     1      27.345  17.591  -7.019  1.00  0.00     0.044 C
ATOM     25  C   UNL     1      26.087  18.316  -6.586  1.00  0.00     0.031 C
ATOM     26  C   UNL     1      26.197  17.808  -7.992  1.00  0.00     0.031 C
BRANCH  24  27
ATOM     27  C   UNL     1      27.610  16.202  -6.423  1.00  0.00     0.057 C
ATOM     28  G   UNL     1      27.145  15.926  -4.993  1.00  0.00     0.000 C
ENDBRANCH  24  27
ENDBRANCH  21  24
ENDBRANCH  13  18
ENDBRANCH   3  12
ENDBRANCH   1   2
BRANCH   1  29
ATOM     29  N   UNL     1      32.863  10.898  -3.227  1.00  0.00    -0.291 NA
ATOM     30  C   UNL     1      34.308  11.185  -3.217  1.00  0.00     0.113 C
ATOM     31  C   UNL     1      32.534   9.678  -2.436  1.00  0.00     0.085 C
ATOM     32  C   UNL     1      34.973  10.794  -1.892  1.00  0.00     0.175 C
ATOM     33  C   UNL     1      33.769   8.759  -2.278  1.00  0.00     0.179 C
ATOM     34  O   UNL     1      34.844   9.401  -1.579  1.00  0.00    -0.378 OA
BRANCH  31  35
ATOM     35  C   UNL     1      31.369   8.940  -3.119  1.00  0.00     0.050 C
BRANCH  35  36
ATOM     36  C   UNL     1      30.760   9.678  -4.313  1.00  0.00     0.162 C
BRANCH  36  37
ATOM     37  O   UNL     1      29.421  10.102  -4.023  1.00  0.00    -0.381 OA
BRANCH  37  38
ATOM     38  C   UNL     1      28.737  10.649  -5.157  1.00  0.00     0.162 C
ATOM     39  G   UNL     1      28.525  12.154  -4.982  1.00  0.00     0.000 C
ENDBRANCH  37  38
ENDBRANCH  36  37
ENDBRANCH  35  36
ENDBRANCH  31  35
ENDBRANCH   1  29
TORSDOF 0
ENDMDL
MODEL 8
REMARK VINA RESULT:      -8.0      1.605      2.234
REMARK SMILES O=C1Nc2c[nH]nc2-c2nc3ccc(cc3[nH]2)CN2CCOC[C@@H]2CCOCCC2(CC2)N1
REMARK SMILES IDX 18 1 14 2 9 3 10 4 17 5 11 6 16 7 12 8 15 9 13 10 8 12 4 13
REMARK SMILES IDX 5 14 6 15 7 16 3 18 1 19 2 20 33 21 30 24 31 25 32 26 29 27
REMARK SMILES IDX 19 29 20 30 24 31 21 32 23 33 22 34 25 35 26 36 27 37 28 38
REMARK H PARENT 17 11 6 17 3 22 33 23
REMARK Flexibility Score:  107.900
ROOT
ATOM      1  C   UNL     1      33.374  12.650  -2.348  1.00  0.00     0.120 C
ENDROOT
BRANCH   1   2
ATOM      2  C   UNL     1      32.994  13.580  -3.484  1.00  0.00    -0.032 A
ATOM      3  C   UNL     1      31.255  17.273  -5.470  1.00  0.00     0.161 A
ATOM      4  N   UNL     1      31.468  16.256  -6.294  1.00  0.00    -0.227 NA
ATOM      5  N   UNL     1      31.846  17.023  -4.265  1.00  0.00    -0.337 N
ATOM      6  C   UNL     1      32.010  15.260  -5.515  1.00  0.00     0.089 A
ATOM      7  C   UNL     1      32.270  15.726  -4.238  1.00  0.00     0.066 A
ATOM      8  C   UNL     1      32.287  13.918  -5.810  1.00  0.00     0.031 A
ATOM      9  C   UNL     1      32.809  14.947  -3.218  1.00  0.00     0.033 A
ATOM     10  C   UNL     1      32.750  13.082  -4.777  1.00  0.00     0.007 A
ATOM     11  H   UNL     1      31.924  17.687  -3.508  1.00  0.00     0.168 HD
BRANCH   3  12
ATOM     12  C   UNL     1      30.395  18.556  -5.826  1.00  0.00     0.151 A
ATOM     13  C   UNL     1      28.996  18.696  -6.134  1.00  0.00     0.092 A
ATOM     14  C   UNL     1      28.865  20.019  -6.502  1.00  0.00     0.132 A
ATOM     15  N   UNL     1      30.095  20.583  -6.375  1.00  0.00    -0.283 N
ATOM     16  N   UNL     1      31.040  19.721  -6.010  1.00  0.00    -0.170 NA
ATOM     17  H   UNL     1      30.372  21.544  -6.553  1.00  0.00     0.189 HD
BRANCH  13  18
ATOM     18  N   UNL     1      27.908  17.841  -6.257  1.00  0.00    -0.304 N
ATOM     19  O   UNL     1      27.984  16.617  -4.319  1.00  0.00    -0.248 OA
ATOM     20  C   UNL     1      27.621  16.751  -5.481  1.00  0.00     0.319 C
ATOM     21  N   UNL     1      26.889  15.805  -6.169  1.00  0.00    -0.332 N
ATOM     22  H   UNL     1      27.182  18.132  -6.894  1.00  0.00     0.172 HD
ATOM     23  H   UNL     1      26.797  15.924  -7.168  1.00  0.00     0.165 HD
BRANCH  21  24
ATOM     24  C   UNL     1      26.441  14.541  -5.610  1.00  0.00     0.044 C
ATOM     25  C   UNL     1      25.251  14.585  -4.673  1.00  0.00     0.031 C
ATOM     26  C   UNL     1      25.075  14.048  -6.061  1.00  0.00     0.031 C
BRANCH  24  27
ATOM     27  C   UNL     1      27.563  13.544  -5.293  1.00  0.00     0.057 C
ATOM     28  G   UNL     1      28.806  13.543  -6.184  1.00  0.00     0.000 C
ENDBRANCH  24  27
ENDBRANCH  21  24
ENDBRANCH  13  18
ENDBRANCH   3  12
ENDBRANCH   1   2
BRANCH   1  29
ATOM     29  N   UNL     1      33.775  11.330  -2.866  1.00  0.00    -0.291 NA
ATOM     30  C   UNL     1      35.152  10.967  -2.492  1.00  0.00     0.113 C
ATOM     31  C   UNL     1      32.808  10.241  -2.549  1.00  0.00     0.085 C
ATOM     32  C   UNL     1      35.205  10.087  -1.238  1.00  0.00     0.175 C
ATOM     33  C   UNL     1      33.519   8.872  -2.431  1.00  0.00     0.179 C
ATOM     34  O   UNL     1      34.494   8.850  -1.378  1.00  0.00    -0.378 OA
BRANCH  31  35
ATOM     35  C   UNL     1      31.714  10.213  -3.632  1.00  0.00     0.050 C
BRANCH  35  36
ATOM     36  C   UNL     1      31.145   8.824  -3.926  1.00  0.00     0.162 C
BRANCH  36  37
ATOM     37  O   UNL     1      30.575   8.773  -5.241  1.00  0.00    -0.381 OA
BRANCH  37  38
ATOM     38  C   UNL     1      29.162   8.536  -5.243  1.00  0.00     0.162 C
ATOM     39  G   UNL     1      28.397   9.854  -5.364  1.00  0.00     0.000 C
ENDBRANCH  37  38
ENDBRANCH  36  37
ENDBRANCH  35  36
ENDBRANCH  31  35
ENDBRANCH   1  29
TORSDOF 0
ENDMDL
MODEL 9
REMARK VINA RESULT:      -7.9      2.095      8.638
REMARK SMILES O=C1Nc2c[nH]nc2-c2nc3ccc(cc3[nH]2)CN2CCOC[C@@H]2CCOCCC2(CC2)N1
REMARK SMILES IDX 18 1 14 2 9 3 10 4 17 5 11 6 16 7 12 8 15 9 13 10 8 12 4 13
REMARK SMILES IDX 5 14 6 15 7 16 3 18 1 19 2 20 33 21 30 24 31 25 32 26 29 27
REMARK SMILES IDX 19 29 20 30 24 31 21 32 23 33 22 34 25 35 26 36 27 37 28 38
REMARK H PARENT 17 11 6 17 3 22 33 23
REMARK Flexibility Score:  107.900
ROOT
ATOM      1  C   UNL     1      31.383  17.338  -6.248  1.00  0.00     0.120 C
ENDROOT
BRANCH   1   2
ATOM      2  C   UNL     1      31.994  16.218  -5.426  1.00  0.00    -0.032 A
ATOM      3  C   UNL     1      32.599  11.979  -3.921  1.00  0.00     0.161 A
ATOM      4  N   UNL     1      33.130  12.917  -3.149  1.00  0.00    -0.227 NA
ATOM      5  N   UNL     1      32.209  12.526  -5.110  1.00  0.00    -0.337 N
ATOM      6  C   UNL     1      32.862  14.108  -3.780  1.00  0.00     0.089 A
ATOM      7  C   UNL     1      32.297  13.885  -5.024  1.00  0.00     0.066 A
ATOM      8  C   UNL     1      33.044  15.431  -3.352  1.00  0.00     0.031 A
ATOM      9  C   UNL     1      31.904  14.897  -5.896  1.00  0.00     0.033 A
ATOM     10  C   UNL     1      32.577  16.475  -4.173  1.00  0.00     0.007 A
ATOM     11  H   UNL     1      31.880  12.003  -5.909  1.00  0.00     0.168 HD
BRANCH   3  12
ATOM     12  C   UNL     1      32.402  10.465  -3.495  1.00  0.00     0.151 A
ATOM     13  C   UNL     1      31.352   9.530  -3.804  1.00  0.00     0.092 A
ATOM     14  C   UNL     1      31.650   8.425  -3.032  1.00  0.00     0.132 A
ATOM     15  N   UNL     1      32.801   8.712  -2.368  1.00  0.00    -0.283 N
ATOM     16  N   UNL     1      33.253   9.943  -2.595  1.00  0.00    -0.170 NA
ATOM     17  H   UNL     1      33.318   8.129  -1.717  1.00  0.00     0.189 HD
BRANCH  13  18
ATOM     18  N   UNL     1      30.166   9.559  -4.526  1.00  0.00    -0.304 N
ATOM     19  O   UNL     1      29.956   7.401  -5.273  1.00  0.00    -0.248 OA
ATOM     20  C   UNL     1      29.685   8.592  -5.366  1.00  0.00     0.319 C
ATOM     21  N   UNL     1      28.872   9.118  -6.349  1.00  0.00    -0.332 N
ATOM     22  H   UNL     1      29.526  10.307  -4.302  1.00  0.00     0.172 HD
ATOM     23  H   UNL     1      28.857  10.123  -6.452  1.00  0.00     0.165 HD
BRANCH  21  24
ATOM     24  C   UNL     1      28.222   8.338  -7.388  1.00  0.00     0.044 C
ATOM     25  C   UNL     1      27.932   9.042  -8.699  1.00  0.00     0.031 C
ATOM     26  C   UNL     1      29.048   8.044  -8.630  1.00  0.00     0.031 C
BRANCH  24  27
ATOM     27  C   UNL     1      27.190   7.323  -6.879  1.00  0.00     0.057 C
ATOM     28  G   UNL     1      26.087   7.817  -5.942  1.00  0.00     0.000 C
ENDBRANCH  24  27
ENDBRANCH  21  24
ENDBRANCH  13  18
ENDBRANCH   3  12
ENDBRANCH   1   2
BRANCH   1  29
ATOM     29  N   UNL     1      30.314  18.015  -5.491  1.00  0.00    -0.291 NA
ATOM     30  C   UNL     1      30.666  19.397  -5.124  1.00  0.00     0.113 C
ATOM     31  C   UNL     1      28.976  17.937  -6.143  1.00  0.00     0.085 C
ATOM     32  C   UNL     1      30.115  20.425  -6.119  1.00  0.00     0.175 C
ATOM     33  C   UNL     1      28.104  19.165  -5.789  1.00  0.00     0.179 C
ATOM     34  O   UNL     1      28.686  20.398  -6.236  1.00  0.00    -0.378 OA
BRANCH  31  35
ATOM     35  C   UNL     1      28.292  16.623  -5.723  1.00  0.00     0.050 C
BRANCH  35  36
ATOM     36  C   UNL     1      26.907  16.404  -6.334  1.00  0.00     0.162 C
BRANCH  36  37
ATOM     37  O   UNL     1      26.018  15.804  -5.382  1.00  0.00    -0.381 OA
BRANCH  37  38
ATOM     38  C   UNL     1      26.523  14.589  -4.813  1.00  0.00     0.162 C
ATOM     39  G   UNL     1      26.380  13.433  -5.803  1.00  0.00     0.000 C
ENDBRANCH  37  38
ENDBRANCH  36  37
ENDBRANCH  35  36
ENDBRANCH  31  35
ENDBRANCH   1  29
TORSDOF 0
ENDMDL
