MODEL 1
REMARK VINA RESULT:      -8.5      0.000      0.000
REMARK SMILES CC(C)(C)[C@H]1NC(=O)c2c[nH]c3ncc(nc23)[C@]2(CC2)CNC[C@@]2(C#N)CN(C2)C1=O
REMARK SMILES IDX 9 1 10 2 11 3 12 4 13 5 14 6 15 7 16 8 17 9 7 11 6 12 8 13
REMARK SMILES IDX 5 15 2 16 1 17 3 18 4 19 30 20 31 21 28 22 27 23 29 24 24 25
REMARK SMILES IDX 25 26 26 27 18 29 19 30 20 31 21 32 22 33 23 35
REMARK H PARENT 11 10 6 14 22 34
REMARK Flexibility Score:  106.900
ROOT
ATOM      1  C   UNL     1      32.307  14.680  -3.171  1.00  0.00     0.085 A
ATOM      2  C   UNL     1      33.270  15.681  -3.115  1.00  0.00     0.100 A
ATOM      3  N   UNL     1      34.486  15.106  -2.840  1.00  0.00    -0.344 N
ATOM      4  C   UNL     1      34.334  13.752  -2.738  1.00  0.00     0.156 A
ATOM      5  N   UNL     1      35.309  12.866  -2.464  1.00  0.00    -0.235 NA
ATOM      6  C   UNL     1      34.812  11.598  -2.465  1.00  0.00     0.138 A
ATOM      7  C   UNL     1      33.482  11.235  -2.728  1.00  0.00     0.067 A
ATOM      8  N   UNL     1      32.536  12.181  -2.977  1.00  0.00    -0.246 NA
ATOM      9  C   UNL     1      32.996  13.458  -2.970  1.00  0.00     0.120 A
ATOM     10  H   UNL     1      35.367  15.587  -2.729  1.00  0.00     0.168 HD
ENDROOT
BRANCH   1  11
ATOM     11  C   UNL     1      30.887  14.900  -3.401  1.00  0.00     0.255 C
ATOM     12  N   UNL     1      30.598  15.867  -4.337  1.00  0.00    -0.340 N
ATOM     13  O   UNL     1      30.034  14.239  -2.819  1.00  0.00    -0.269 OA
ATOM     14  H   UNL     1      31.381  16.442  -4.643  1.00  0.00     0.164 HD
BRANCH  12  15
ATOM     15  C   UNL     1      29.239  16.312  -4.667  1.00  0.00     0.177 C
BRANCH  15  16
ATOM     16  C   UNL     1      28.531  15.591  -5.887  1.00  0.00    -0.009 C
ATOM     17  C   UNL     1      27.055  15.290  -5.520  1.00  0.00     0.013 C
ATOM     18  C   UNL     1      29.196  14.259  -6.287  1.00  0.00     0.013 C
ATOM     19  C   UNL     1      28.462  16.484  -7.149  1.00  0.00     0.013 C
ENDBRANCH  15  16
BRANCH  15  20
ATOM     20  C   UNL     1      29.230  17.860  -4.755  1.00  0.00     0.245 C
ATOM     21  O   UNL     1      28.186  18.492  -4.557  1.00  0.00    -0.272 OA
BRANCH  20  22
ATOM     22  N   UNL     1      30.362  18.522  -5.141  1.00  0.00    -0.337 N
ATOM     23  C   UNL     1      31.345  19.179  -4.295  1.00  0.00     0.145 C
ATOM     24  C   UNL     1      30.956  18.956  -6.389  1.00  0.00     0.145 C
ATOM     25  C   UNL     1      32.209  19.367  -5.566  1.00  0.00     0.105 C
ATOM     26  C   UNL     1      32.608  20.748  -5.778  1.00  0.00     0.074 C
ATOM     27  N   UNL     1      32.937  21.848  -5.949  1.00  0.00    -0.198 NA
ATOM     28  G   UNL     1      33.443  18.451  -5.694  1.00  0.00     0.000 C
ENDBRANCH  20  22
ENDBRANCH  15  20
ENDBRANCH  12  15
ENDBRANCH   1  11
BRANCH   7  29
ATOM     29  C   UNL     1      33.044   9.768  -2.741  1.00  0.00     0.027 C
ATOM     30  C   UNL     1      32.905   9.022  -1.419  1.00  0.00     0.016 C
ATOM     31  C   UNL     1      34.073   8.729  -2.308  1.00  0.00     0.016 C
BRANCH  29  32
ATOM     32  C   UNL     1      32.104   9.393  -3.879  1.00  0.00     0.094 C
BRANCH  32  33
ATOM     33  N   UNL     1      30.735   9.650  -3.442  1.00  0.00    -0.314 NA
ATOM     34  H   UNL     1      30.731  10.437  -2.794  1.00  0.00     0.122 HD
BRANCH  33  35
ATOM     35  C   UNL     1      29.801   9.862  -4.546  1.00  0.00     0.107 C
ATOM     36  G   UNL     1      29.082  11.223  -4.458  1.00  0.00     0.000 C
ENDBRANCH  33  35
ENDBRANCH  32  33
ENDBRANCH  29  32
ENDBRANCH   7  29
TORSDOF 1
ENDMDL
MODEL 2
REMARK VINA RESULT:      -8.4      1.533      3.675
REMARK SMILES CC(C)(C)[C@H]1NC(=O)c2c[nH]c3ncc(nc23)[C@]2(CC2)CNC[C@@]2(C#N)CN(C2)C1=O
REMARK SMILES IDX 9 1 10 2 11 3 12 4 13 5 14 6 15 7 16 8 17 9 7 11 6 12 8 13
REMARK SMILES IDX 5 15 2 16 1 17 3 18 4 19 30 20 31 21 28 22 27 23 29 24 24 25
REMARK SMILES IDX 25 26 26 27 18 29 19 30 20 31 21 32 22 33 23 35
REMARK H PARENT 11 10 6 14 22 34
REMARK Flexibility Score:  106.900
ROOT
ATOM      1  C   UNL     1      29.175  12.207  -4.681  1.00  0.00     0.085 A
ATOM      2  C   UNL     1      28.128  11.642  -5.401  1.00  0.00     0.100 A
ATOM      3  N   UNL     1      28.395  10.309  -5.591  1.00  0.00    -0.344 N
ATOM      4  C   UNL     1      29.582   9.994  -4.991  1.00  0.00     0.156 A
ATOM      5  N   UNL     1      30.166   8.782  -4.983  1.00  0.00    -0.235 NA
ATOM      6  C   UNL     1      31.325   8.818  -4.270  1.00  0.00     0.138 A
ATOM      7  C   UNL     1      31.853   9.941  -3.612  1.00  0.00     0.067 A
ATOM      8  N   UNL     1      31.225  11.146  -3.676  1.00  0.00    -0.246 NA
ATOM      9  C   UNL     1      30.072  11.147  -4.391  1.00  0.00     0.120 A
ATOM     10  H   UNL     1      27.819   9.646  -6.089  1.00  0.00     0.168 HD
ENDROOT
BRANCH   1  11
ATOM     11  C   UNL     1      29.275  13.612  -4.316  1.00  0.00     0.255 C
ATOM     12  N   UNL     1      29.137  14.491  -5.367  1.00  0.00    -0.340 N
ATOM     13  O   UNL     1      29.437  13.962  -3.153  1.00  0.00    -0.269 OA
ATOM     14  H   UNL     1      29.151  14.081  -6.299  1.00  0.00     0.164 HD
BRANCH  12  15
ATOM     15  C   UNL     1      29.284  15.946  -5.246  1.00  0.00     0.177 C
BRANCH  15  16
ATOM     16  C   UNL     1      28.049  16.827  -5.700  1.00  0.00    -0.009 C
ATOM     17  C   UNL     1      26.734  16.066  -5.391  1.00  0.00     0.013 C
ATOM     18  C   UNL     1      28.052  17.167  -7.204  1.00  0.00     0.013 C
ATOM     19  C   UNL     1      27.944  18.156  -4.914  1.00  0.00     0.013 C
ENDBRANCH  15  16
BRANCH  15  20
ATOM     20  C   UNL     1      30.631  16.364  -5.891  1.00  0.00     0.245 C
ATOM     21  O   UNL     1      31.225  15.596  -6.655  1.00  0.00    -0.272 OA
BRANCH  20  22
ATOM     22  N   UNL     1      31.209  17.552  -5.539  1.00  0.00    -0.337 N
ATOM     23  C   UNL     1      31.297  18.771  -6.330  1.00  0.00     0.145 C
ATOM     24  C   UNL     1      32.020  18.049  -4.448  1.00  0.00     0.145 C
ATOM     25  C   UNL     1      31.856  19.466  -5.064  1.00  0.00     0.105 C
ATOM     26  C   UNL     1      33.121  20.140  -5.302  1.00  0.00     0.074 C
ATOM     27  N   UNL     1      34.127  20.687  -5.487  1.00  0.00    -0.198 NA
ATOM     28  G   UNL     1      30.894  20.424  -4.332  1.00  0.00     0.000 C
ENDBRANCH  20  22
ENDBRANCH  15  20
ENDBRANCH  12  15
ENDBRANCH   1  11
BRANCH   7  29
ATOM     29  C   UNL     1      33.150   9.854  -2.804  1.00  0.00     0.027 C
ATOM     30  C   UNL     1      33.731   8.484  -2.475  1.00  0.00     0.016 C
ATOM     31  C   UNL     1      33.057   9.273  -1.396  1.00  0.00     0.016 C
BRANCH  29  32
ATOM     32  C   UNL     1      34.117  11.010  -3.023  1.00  0.00     0.094 C
BRANCH  32  33
ATOM     33  N   UNL     1      33.586  12.184  -2.337  1.00  0.00    -0.314 NA
ATOM     34  H   UNL     1      33.808  12.122  -1.344  1.00  0.00     0.122 HD
BRANCH  33  35
ATOM     35  C   UNL     1      34.043  13.450  -2.907  1.00  0.00     0.107 C
ATOM     36  G   UNL     1      32.982  14.107  -3.813  1.00  0.00     0.000 C
ENDBRANCH  33  35
ENDBRANCH  32  33
ENDBRANCH  29  32
ENDBRANCH   7  29
TORSDOF 1
ENDMDL
MODEL 3
REMARK VINA RESULT:      -8.4      2.076      3.131
REMARK SMILES CC(C)(C)[C@H]1NC(=O)c2c[nH]c3ncc(nc23)[C@]2(CC2)CNC[C@@]2(C#N)CN(C2)C1=O
REMARK SMILES IDX 9 1 10 2 11 3 12 4 13 5 14 6 15 7 16 8 17 9 7 11 6 12 8 13
REMARK SMILES IDX 5 15 2 16 1 17 3 18 4 19 30 20 31 21 28 22 27 23 29 24 24 25
REMARK SMILES IDX 25 26 26 27 18 29 19 30 20 31 21 32 22 33 23 35
REMARK H PARENT 11 10 6 14 22 34
REMARK Flexibility Score:  106.900
ROOT
ATOM      1  C   UNL     1      33.937  12.931  -2.771  1.00  0.00     0.085 A
ATOM      2  C   UNL     1      35.205  12.876  -2.202  1.00  0.00     0.100 A
ATOM      3  N   UNL     1      35.519  11.562  -1.955  1.00  0.00    -0.344 N
ATOM      4  C   UNL     1      34.491  10.764  -2.371  1.00  0.00     0.156 A
ATOM      5  N   UNL     1      34.442   9.423  -2.277  1.00  0.00    -0.235 NA
ATOM      6  C   UNL     1      33.284   8.951  -2.814  1.00  0.00     0.138 A
ATOM      7  C   UNL     1      32.274   9.725  -3.405  1.00  0.00     0.067 A
ATOM      8  N   UNL     1      32.371  11.082  -3.451  1.00  0.00    -0.246 NA
ATOM      9  C   UNL     1      33.509  11.586  -2.911  1.00  0.00     0.120 A
ATOM     10  H   UNL     1      36.370  11.216  -1.536  1.00  0.00     0.168 HD
ENDROOT
BRANCH   1  11
ATOM     11  C   UNL     1      33.240  14.154  -3.138  1.00  0.00     0.255 C
ATOM     12  N   UNL     1      32.041  13.961  -3.786  1.00  0.00    -0.340 N
ATOM     13  O   UNL     1      33.689  15.258  -2.852  1.00  0.00    -0.269 OA
ATOM     14  H   UNL     1      31.845  13.010  -4.093  1.00  0.00     0.164 HD
BRANCH  12  15
ATOM     15  C   UNL     1      31.211  15.047  -4.320  1.00  0.00     0.177 C
BRANCH  15  16
ATOM     16  C   UNL     1      29.706  14.692  -4.661  1.00  0.00    -0.009 C
ATOM     17  C   UNL     1      29.155  13.711  -3.594  1.00  0.00     0.013 C
ATOM     18  C   UNL     1      29.525  14.032  -6.043  1.00  0.00     0.013 C
ATOM     19  C   UNL     1      28.773  15.925  -4.600  1.00  0.00     0.013 C
ENDBRANCH  15  16
BRANCH  15  20
ATOM     20  C   UNL     1      31.978  15.735  -5.480  1.00  0.00     0.245 C
ATOM     21  O   UNL     1      32.551  15.057  -6.340  1.00  0.00    -0.272 OA
BRANCH  20  22
ATOM     22  N   UNL     1      32.096  17.096  -5.498  1.00  0.00    -0.337 N
ATOM     23  C   UNL     1      32.592  17.935  -6.579  1.00  0.00     0.145 C
ATOM     24  C   UNL     1      31.955  18.181  -4.549  1.00  0.00     0.145 C
ATOM     25  C   UNL     1      32.132  19.157  -5.745  1.00  0.00     0.105 C
ATOM     26  C   UNL     1      33.191  20.131  -5.540  1.00  0.00     0.074 C
ATOM     27  N   UNL     1      34.030  20.917  -5.380  1.00  0.00    -0.198 NA
ATOM     28  G   UNL     1      30.860  19.877  -6.236  1.00  0.00     0.000 C
ENDBRANCH  20  22
ENDBRANCH  15  20
ENDBRANCH  12  15
ENDBRANCH   1  11
BRANCH   7  29
ATOM     29  C   UNL     1      31.027   9.079  -4.014  1.00  0.00     0.027 C
ATOM     30  C   UNL     1      30.465   9.632  -5.319  1.00  0.00     0.016 C
ATOM     31  C   UNL     1      29.749   9.911  -4.035  1.00  0.00     0.016 C
BRANCH  29  32
ATOM     32  C   UNL     1      30.888   7.586  -3.749  1.00  0.00     0.094 C
BRANCH  32  33
ATOM     33  N   UNL     1      30.683   6.913  -5.028  1.00  0.00    -0.314 NA
ATOM     34  H   UNL     1      31.506   6.351  -5.248  1.00  0.00     0.122 HD
BRANCH  33  35
ATOM     35  C   UNL     1      29.462   6.112  -5.076  1.00  0.00     0.107 C
ATOM     36  G   UNL     1      29.356   5.274  -6.366  1.00  0.00     0.000 C
ENDBRANCH  33  35
ENDBRANCH  32  33
ENDBRANCH  29  32
ENDBRANCH   7  29
TORSDOF 1
ENDMDL
MODEL 4
REMARK VINA RESULT:      -8.3      0.671      1.041
REMARK SMILES CC(C)(C)[C@H]1NC(=O)c2c[nH]c3ncc(nc23)[C@]2(CC2)CNC[C@@]2(C#N)CN(C2)C1=O
REMARK SMILES IDX 9 1 10 2 11 3 12 4 13 5 14 6 15 7 16 8 17 9 7 11 6 12 8 13
REMARK SMILES IDX 5 15 2 16 1 17 3 18 4 19 30 20 31 21 28 22 27 23 29 24 24 25
REMARK SMILES IDX 25 26 26 27 18 29 19 30 20 31 21 32 22 33 23 35
REMARK H PARENT 11 10 6 14 22 34
REMARK Flexibility Score:  106.900
ROOT
ATOM      1  C   UNL     1      32.228  14.709  -3.196  1.00  0.00     0.085 A
ATOM      2  C   UNL     1      33.196  15.706  -3.140  1.00  0.00     0.100 A
ATOM      3  N   UNL     1      34.411  15.124  -2.873  1.00  0.00    -0.344 N
ATOM      4  C   UNL     1      34.254  13.771  -2.775  1.00  0.00     0.156 A
ATOM      5  N   UNL     1      35.225  12.879  -2.509  1.00  0.00    -0.235 NA
ATOM      6  C   UNL     1      34.723  11.614  -2.514  1.00  0.00     0.138 A
ATOM      7  C   UNL     1      33.390  11.257  -2.772  1.00  0.00     0.067 A
ATOM      8  N   UNL     1      32.448  12.208  -3.014  1.00  0.00    -0.246 NA
ATOM      9  C   UNL     1      32.914  13.483  -3.003  1.00  0.00     0.120 A
ATOM     10  H   UNL     1      35.294  15.601  -2.764  1.00  0.00     0.168 HD
ENDROOT
BRANCH   1  11
ATOM     11  C   UNL     1      30.809  14.936  -3.419  1.00  0.00     0.255 C
ATOM     12  N   UNL     1      30.520  15.859  -4.399  1.00  0.00    -0.340 N
ATOM     13  O   UNL     1      29.955  14.318  -2.793  1.00  0.00    -0.269 OA
ATOM     14  H   UNL     1      31.306  16.406  -4.745  1.00  0.00     0.164 HD
BRANCH  12  15
ATOM     15  C   UNL     1      29.162  16.304  -4.735  1.00  0.00     0.177 C
BRANCH  15  16
ATOM     16  C   UNL     1      28.460  15.586  -5.959  1.00  0.00    -0.009 C
ATOM     17  C   UNL     1      26.924  15.597  -5.750  1.00  0.00     0.013 C
ATOM     18  C   UNL     1      28.897  14.120  -6.150  1.00  0.00     0.013 C
ATOM     19  C   UNL     1      28.693  16.327  -7.298  1.00  0.00     0.013 C
ENDBRANCH  15  16
BRANCH  15  20
ATOM     20  C   UNL     1      29.153  17.852  -4.818  1.00  0.00     0.245 C
ATOM     21  O   UNL     1      28.092  18.479  -4.722  1.00  0.00    -0.272 OA
BRANCH  20  22
ATOM     22  N   UNL     1      30.314  18.521  -5.090  1.00  0.00    -0.337 N
ATOM     23  C   UNL     1      30.855  18.878  -6.393  1.00  0.00     0.145 C
ATOM     24  C   UNL     1      31.463  18.988  -4.342  1.00  0.00     0.145 C
ATOM     25  C   UNL     1      31.929  19.703  -5.641  1.00  0.00     0.105 C
ATOM     26  C   UNL     1      33.284  19.356  -6.034  1.00  0.00     0.074 C
ATOM     27  N   UNL     1      34.369  19.089  -6.349  1.00  0.00    -0.198 NA
ATOM     28  G   UNL     1      31.761  21.235  -5.678  1.00  0.00     0.000 C
ENDBRANCH  20  22
ENDBRANCH  15  20
ENDBRANCH  12  15
ENDBRANCH   1  11
BRANCH   7  29
ATOM     29  C   UNL     1      32.946   9.792  -2.789  1.00  0.00     0.027 C
ATOM     30  C   UNL     1      32.792   9.046  -1.469  1.00  0.00     0.016 C
ATOM     31  C   UNL     1      33.967   8.748  -2.348  1.00  0.00     0.016 C
BRANCH  29  32
ATOM     32  C   UNL     1      32.014   9.422  -3.936  1.00  0.00     0.094 C
BRANCH  32  33
ATOM     33  N   UNL     1      30.674   9.896  -3.605  1.00  0.00    -0.314 NA
ATOM     34  H   UNL     1      30.727  10.516  -2.796  1.00  0.00     0.122 HD
BRANCH  33  35
ATOM     35  C   UNL     1      29.990  10.539  -4.725  1.00  0.00     0.107 C
ATOM     36  G   UNL     1      28.622   9.895  -5.029  1.00  0.00     0.000 C
ENDBRANCH  33  35
ENDBRANCH  32  33
ENDBRANCH  29  32
ENDBRANCH   7  29
TORSDOF 1
ENDMDL
MODEL 5
REMARK VINA RESULT:      -8.2      1.792      2.654
REMARK SMILES CC(C)(C)[C@H]1NC(=O)c2c[nH]c3ncc(nc23)[C@]2(CC2)CNC[C@@]2(C#N)CN(C2)C1=O
REMARK SMILES IDX 9 1 10 2 11 3 12 4 13 5 14 6 15 7 16 8 17 9 7 11 6 12 8 13
REMARK SMILES IDX 5 15 2 16 1 17 3 18 4 19 30 20 31 21 28 22 27 23 29 24 24 25
REMARK SMILES IDX 25 26 26 27 18 29 19 30 20 31 21 32 22 33 23 35
REMARK H PARENT 11 10 6 14 22 34
REMARK Flexibility Score:  106.900
ROOT
ATOM      1  C   UNL     1      34.034  13.239  -2.803  1.00  0.00     0.085 A
ATOM      2  C   UNL     1      35.310  13.216  -2.252  1.00  0.00     0.100 A
ATOM      3  N   UNL     1      35.658  11.912  -2.003  1.00  0.00    -0.344 N
ATOM      4  C   UNL     1      34.643  11.088  -2.400  1.00  0.00     0.156 A
ATOM      5  N   UNL     1      34.627   9.746  -2.298  1.00  0.00    -0.235 NA
ATOM      6  C   UNL     1      33.473   9.244  -2.817  1.00  0.00     0.138 A
ATOM      7  C   UNL     1      32.436   9.992  -3.397  1.00  0.00     0.067 A
ATOM      8  N   UNL     1      32.501  11.350  -3.451  1.00  0.00    -0.246 NA
ATOM      9  C   UNL     1      33.635  11.884  -2.930  1.00  0.00     0.120 A
ATOM     10  H   UNL     1      36.523  11.587  -1.594  1.00  0.00     0.168 HD
ENDROOT
BRANCH   1  11
ATOM     11  C   UNL     1      33.303  14.443  -3.166  1.00  0.00     0.255 C
ATOM     12  N   UNL     1      32.109  14.219  -3.815  1.00  0.00    -0.340 N
ATOM     13  O   UNL     1      33.722  15.558  -2.876  1.00  0.00    -0.269 OA
ATOM     14  H   UNL     1      31.940  13.264  -4.124  1.00  0.00     0.164 HD
BRANCH  12  15
ATOM     15  C   UNL     1      31.250  15.284  -4.345  1.00  0.00     0.177 C
BRANCH  15  16
ATOM     16  C   UNL     1      29.755  14.889  -4.685  1.00  0.00    -0.009 C
ATOM     17  C   UNL     1      29.174  14.030  -3.532  1.00  0.00     0.013 C
ATOM     18  C   UNL     1      29.612  14.079  -5.990  1.00  0.00     0.013 C
ATOM     19  C   UNL     1      28.821  16.119  -4.786  1.00  0.00     0.013 C
ENDBRANCH  15  16
BRANCH  15  20
ATOM     20  C   UNL     1      31.996  15.995  -5.503  1.00  0.00     0.245 C
ATOM     21  O   UNL     1      32.550  15.335  -6.389  1.00  0.00    -0.272 OA
BRANCH  20  22
ATOM     22  N   UNL     1      32.120  17.356  -5.493  1.00  0.00    -0.337 N
ATOM     23  C   UNL     1      32.679  18.210  -6.530  1.00  0.00     0.145 C
ATOM     24  C   UNL     1      31.929  18.426  -4.536  1.00  0.00     0.145 C
ATOM     25  C   UNL     1      32.176  19.420  -5.705  1.00  0.00     0.105 C
ATOM     26  C   UNL     1      33.225  20.387  -5.425  1.00  0.00     0.074 C
ATOM     27  N   UNL     1      34.055  21.167  -5.205  1.00  0.00    -0.198 NA
ATOM     28  G   UNL     1      30.936  20.153  -6.255  1.00  0.00     0.000 C
ENDBRANCH  20  22
ENDBRANCH  15  20
ENDBRANCH  12  15
ENDBRANCH   1  11
BRANCH   7  29
ATOM     29  C   UNL     1      31.197   9.313  -3.985  1.00  0.00     0.027 C
ATOM     30  C   UNL     1      30.481   8.240  -3.173  1.00  0.00     0.016 C
ATOM     31  C   UNL     1      31.316   7.836  -4.348  1.00  0.00     0.016 C
BRANCH  29  32
ATOM     32  C   UNL     1      30.362  10.196  -4.903  1.00  0.00     0.094 C
BRANCH  32  33
ATOM     33  N   UNL     1      29.173  10.619  -4.169  1.00  0.00    -0.314 NA
ATOM     34  H   UNL     1      29.349  11.525  -3.737  1.00  0.00     0.122 HD
BRANCH  33  35
ATOM     35  C   UNL     1      27.962  10.645  -4.987  1.00  0.00     0.107 C
ATOM     36  G   UNL     1      27.821   9.392  -5.875  1.00  0.00     0.000 C
ENDBRANCH  33  35
ENDBRANCH  32  33
ENDBRANCH  29  32
ENDBRANCH   7  29
TORSDOF 1
ENDMDL
MODEL 6
REMARK VINA RESULT:      -8.1      2.047      4.168
REMARK SMILES CC(C)(C)[C@H]1NC(=O)c2c[nH]c3ncc(nc23)[C@]2(CC2)CNC[C@@]2(C#N)CN(C2)C1=O
REMARK SMILES IDX 9 1 10 2 11 3 12 4 13 5 14 6 15 7 16 8 17 9 7 11 6 12 8 13
REMARK SMILES IDX 5 15 2 16 1 17 3 18 4 19 30 20 31 21 28 22 27 23 29 24 24 25
REMARK SMILES IDX 25 26 26 27 18 29 19 30 20 31 21 32 22 33 23 35
REMARK H PARENT 11 10 6 14 22 34
REMARK Flexibility Score:  106.900
ROOT
ATOM      1  C   UNL     1      33.434  11.197  -2.994  1.00  0.00     0.085 A
ATOM      2  C   UNL     1      34.449  10.445  -2.414  1.00  0.00     0.100 A
ATOM      3  N   UNL     1      34.093   9.120  -2.458  1.00  0.00    -0.344 N
ATOM      4  C   UNL     1      32.880   8.995  -3.073  1.00  0.00     0.156 A
ATOM      5  N   UNL     1      32.213   7.846  -3.282  1.00  0.00    -0.235 NA
ATOM      6  C   UNL     1      31.049   8.085  -3.946  1.00  0.00     0.138 A
ATOM      7  C   UNL     1      30.591   9.340  -4.379  1.00  0.00     0.067 A
ATOM      8  N   UNL     1      31.301  10.471  -4.118  1.00  0.00    -0.246 NA
ATOM      9  C   UNL     1      32.462  10.267  -3.444  1.00  0.00     0.120 A
ATOM     10  H   UNL     1      34.629   8.342  -2.101  1.00  0.00     0.168 HD
ENDROOT
BRANCH   1  11
ATOM     11  C   UNL     1      33.426  12.648  -3.100  1.00  0.00     0.255 C
ATOM     12  N   UNL     1      32.213  13.194  -3.456  1.00  0.00    -0.340 N
ATOM     13  O   UNL     1      34.425  13.313  -2.853  1.00  0.00    -0.269 OA
ATOM     14  H   UNL     1      31.502  12.536  -3.772  1.00  0.00     0.164 HD
BRANCH  12  15
ATOM     15  C   UNL     1      31.995  14.624  -3.701  1.00  0.00     0.177 C
BRANCH  15  16
ATOM     16  C   UNL     1      30.691  15.264  -3.071  1.00  0.00    -0.009 C
ATOM     17  C   UNL     1      29.594  14.176  -2.945  1.00  0.00     0.013 C
ATOM     18  C   UNL     1      30.108  16.424  -3.903  1.00  0.00     0.013 C
ATOM     19  C   UNL     1      30.918  15.782  -1.630  1.00  0.00     0.013 C
ENDBRANCH  15  16
BRANCH  15  20
ATOM     20  C   UNL     1      32.167  14.900  -5.218  1.00  0.00     0.245 C
ATOM     21  O   UNL     1      32.045  13.985  -6.039  1.00  0.00    -0.272 OA
BRANCH  20  22
ATOM     22  N   UNL     1      32.544  16.145  -5.640  1.00  0.00    -0.337 N
ATOM     23  C   UNL     1      33.228  17.177  -4.876  1.00  0.00     0.145 C
ATOM     24  C   UNL     1      32.342  16.967  -6.814  1.00  0.00     0.145 C
ATOM     25  C   UNL     1      33.359  17.969  -6.200  1.00  0.00     0.105 C
ATOM     26  C   UNL     1      32.842  19.324  -6.101  1.00  0.00     0.074 C
ATOM     27  N   UNL     1      32.438  20.409  -6.026  1.00  0.00    -0.198 NA
ATOM     28  G   UNL     1      34.761  18.001  -6.841  1.00  0.00     0.000 C
ENDBRANCH  20  22
ENDBRANCH  15  20
ENDBRANCH  12  15
ENDBRANCH   1  11
BRANCH   7  29
ATOM     29  C   UNL     1      29.280   9.485  -5.155  1.00  0.00     0.027 C
ATOM     30  C   UNL     1      28.521   8.231  -5.573  1.00  0.00     0.016 C
ATOM     31  C   UNL     1      29.272   9.012  -6.606  1.00  0.00     0.016 C
BRANCH  29  32
ATOM     32  C   UNL     1      28.474  10.733  -4.820  1.00  0.00     0.094 C
BRANCH  32  33
ATOM     33  N   UNL     1      28.976  11.832  -5.639  1.00  0.00    -0.314 NA
ATOM     34  H   UNL     1      29.429  11.453  -6.469  1.00  0.00     0.122 HD
BRANCH  33  35
ATOM     35  C   UNL     1      27.950  12.812  -5.991  1.00  0.00     0.107 C
ATOM     36  G   UNL     1      28.550  14.161  -6.435  1.00  0.00     0.000 C
ENDBRANCH  33  35
ENDBRANCH  32  33
ENDBRANCH  29  32
ENDBRANCH   7  29
TORSDOF 1
ENDMDL
MODEL 7
REMARK VINA RESULT:      -8.0      0.729      1.092
REMARK SMILES CC(C)(C)[C@H]1NC(=O)c2c[nH]c3ncc(nc23)[C@]2(CC2)CNC[C@@]2(C#N)CN(C2)C1=O
REMARK SMILES IDX 9 1 10 2 11 3 12 4 13 5 14 6 15 7 16 8 17 9 7 11 6 12 8 13
REMARK SMILES IDX 5 15 2 16 1 17 3 18 4 19 30 20 31 21 28 22 27 23 29 24 24 25
REMARK SMILES IDX 25 26 26 27 18 29 19 30 20 31 21 32 22 33 23 35
REMARK H PARENT 11 10 6 14 22 34
REMARK Flexibility Score:  106.900
ROOT
ATOM      1  C   UNL     1      32.482  14.783  -2.999  1.00  0.00     0.085 A
ATOM      2  C   UNL     1      33.631  15.564  -2.941  1.00  0.00     0.100 A
ATOM      3  N   UNL     1      34.720  14.735  -2.833  1.00  0.00    -0.344 N
ATOM      4  C   UNL     1      34.303  13.435  -2.843  1.00  0.00     0.156 A
ATOM      5  N   UNL     1      35.093  12.350  -2.743  1.00  0.00    -0.235 NA
ATOM      6  C   UNL     1      34.349  11.212  -2.815  1.00  0.00     0.138 A
ATOM      7  C   UNL     1      32.957  11.147  -2.986  1.00  0.00     0.067 A
ATOM      8  N   UNL     1      32.209  12.282  -3.059  1.00  0.00    -0.246 NA
ATOM      9  C   UNL     1      32.920  13.435  -2.976  1.00  0.00     0.120 A
ATOM     10  H   UNL     1      35.686  15.019  -2.761  1.00  0.00     0.168 HD
ENDROOT
BRANCH   1  11
ATOM     11  C   UNL     1      31.124  15.301  -3.076  1.00  0.00     0.255 C
ATOM     12  N   UNL     1      30.659  15.511  -4.355  1.00  0.00    -0.340 N
ATOM     13  O   UNL     1      30.455  15.495  -2.068  1.00  0.00    -0.269 OA
ATOM     14  H   UNL     1      31.352  15.450  -5.099  1.00  0.00     0.164 HD
BRANCH  12  15
ATOM     15  C   UNL     1      29.354  16.104  -4.668  1.00  0.00     0.177 C
BRANCH  15  16
ATOM     16  C   UNL     1      28.557  15.471  -5.881  1.00  0.00    -0.009 C
ATOM     17  C   UNL     1      28.953  16.198  -7.192  1.00  0.00     0.013 C
ATOM     18  C   UNL     1      27.025  15.572  -5.734  1.00  0.00     0.013 C
ATOM     19  C   UNL     1      28.913  13.983  -6.117  1.00  0.00     0.013 C
ENDBRANCH  15  16
BRANCH  15  20
ATOM     20  C   UNL     1      29.514  17.644  -4.750  1.00  0.00     0.245 C
ATOM     21  O   UNL     1      28.551  18.386  -4.531  1.00  0.00    -0.272 OA
BRANCH  20  22
ATOM     22  N   UNL     1      30.705  18.179  -5.156  1.00  0.00    -0.337 N
ATOM     23  C   UNL     1      31.753  18.757  -4.328  1.00  0.00     0.145 C
ATOM     24  C   UNL     1      31.334  18.518  -6.415  1.00  0.00     0.145 C
ATOM     25  C   UNL     1      32.626  18.823  -5.606  1.00  0.00     0.105 C
ATOM     26  C   UNL     1      33.160  20.152  -5.855  1.00  0.00     0.074 C
ATOM     27  N   UNL     1      33.596  21.208  -6.056  1.00  0.00    -0.198 NA
ATOM     28  G   UNL     1      33.761  17.785  -5.711  1.00  0.00     0.000 C
ENDBRANCH  20  22
ENDBRANCH  15  20
ENDBRANCH  12  15
ENDBRANCH   1  11
BRANCH   7  29
ATOM     29  C   UNL     1      32.229   9.805  -3.094  1.00  0.00     0.027 C
ATOM     30  C   UNL     1      31.857   9.057  -1.819  1.00  0.00     0.016 C
ATOM     31  C   UNL     1      32.994   8.559  -2.656  1.00  0.00     0.016 C
BRANCH  29  32
ATOM     32  C   UNL     1      31.306   9.675  -4.298  1.00  0.00     0.094 C
BRANCH  32  33
ATOM     33  N   UNL     1      29.939   9.932  -3.853  1.00  0.00    -0.314 NA
ATOM     34  H   UNL     1      29.960  10.328  -2.914  1.00  0.00     0.122 HD
BRANCH  33  35
ATOM     35  C   UNL     1      29.177  10.777  -4.771  1.00  0.00     0.107 C
ATOM     36  G   UNL     1      27.741  10.263  -4.992  1.00  0.00     0.000 C
ENDBRANCH  33  35
ENDBRANCH  32  33
ENDBRANCH  29  32
ENDBRANCH   7  29
TORSDOF 1
ENDMDL
MODEL 8
REMARK VINA RESULT:      -8.0      1.430      1.741
REMARK SMILES CC(C)(C)[C@H]1NC(=O)c2c[nH]c3ncc(nc23)[C@]2(CC2)CNC[C@@]2(C#N)CN(C2)C1=O
REMARK SMILES IDX 9 1 10 2 11 3 12 4 13 5 14 6 15 7 16 8 17 9 7 11 6 12 8 13
REMARK SMILES IDX 5 15 2 16 1 17 3 18 4 19 30 20 31 21 28 22 27 23 29 24 24 25
REMARK SMILES IDX 25 26 26 27 18 29 19 30 20 31 21 32 22 33 23 35
REMARK H PARENT 11 10 6 14 22 34
REMARK Flexibility Score:  106.900
ROOT
ATOM      1  C   UNL     1      32.938  14.568  -2.953  1.00  0.00     0.085 A
ATOM      2  C   UNL     1      34.203  15.076  -2.679  1.00  0.00     0.100 A
ATOM      3  N   UNL     1      35.075  14.026  -2.531  1.00  0.00    -0.344 N
ATOM      4  C   UNL     1      34.406  12.851  -2.724  1.00  0.00     0.156 A
ATOM      5  N   UNL     1      34.937  11.617  -2.645  1.00  0.00    -0.235 NA
ATOM      6  C   UNL     1      33.994  10.675  -2.923  1.00  0.00     0.138 A
ATOM      7  C   UNL     1      32.655  10.925  -3.262  1.00  0.00     0.067 A
ATOM      8  N   UNL     1      32.171  12.196  -3.304  1.00  0.00    -0.246 NA
ATOM      9  C   UNL     1      33.084  13.159  -3.019  1.00  0.00     0.120 A
ATOM     10  H   UNL     1      36.059  14.089  -2.315  1.00  0.00     0.168 HD
ENDROOT
BRANCH   1  11
ATOM     11  C   UNL     1      31.738  15.371  -3.136  1.00  0.00     0.255 C
ATOM     12  N   UNL     1      31.162  15.272  -4.382  1.00  0.00    -0.340 N
ATOM     13  O   UNL     1      31.276  16.048  -2.225  1.00  0.00    -0.269 OA
ATOM     14  H   UNL     1      31.713  14.794  -5.094  1.00  0.00     0.164 HD
BRANCH  12  15
ATOM     15  C   UNL     1      29.997  16.053  -4.815  1.00  0.00     0.177 C
BRANCH  15  16
ATOM     16  C   UNL     1      28.688  15.239  -5.175  1.00  0.00    -0.009 C
ATOM     17  C   UNL     1      28.437  14.162  -4.088  1.00  0.00     0.013 C
ATOM     18  C   UNL     1      28.762  14.521  -6.537  1.00  0.00     0.013 C
ATOM     19  C   UNL     1      27.417  16.122  -5.173  1.00  0.00     0.013 C
ENDBRANCH  15  16
BRANCH  15  20
ATOM     20  C   UNL     1      30.447  17.048  -5.916  1.00  0.00     0.245 C
ATOM     21  O   UNL     1      30.344  16.749  -7.110  1.00  0.00    -0.272 OA
BRANCH  20  22
ATOM     22  N   UNL     1      31.046  18.224  -5.560  1.00  0.00    -0.337 N
ATOM     23  C   UNL     1      31.437  19.325  -6.428  1.00  0.00     0.145 C
ATOM     24  C   UNL     1      31.630  18.792  -4.362  1.00  0.00     0.145 C
ATOM     25  C   UNL     1      31.756  20.129  -5.143  1.00  0.00     0.105 C
ATOM     26  C   UNL     1      33.104  20.673  -5.138  1.00  0.00     0.074 C
ATOM     27  N   UNL     1      34.176  21.117  -5.130  1.00  0.00    -0.198 NA
ATOM     28  G   UNL     1      30.754  21.239  -4.767  1.00  0.00     0.000 C
ENDBRANCH  20  22
ENDBRANCH  15  20
ENDBRANCH  12  15
ENDBRANCH   1  11
BRANCH   7  29
ATOM     29  C   UNL     1      31.690   9.784  -3.594  1.00  0.00     0.027 C
ATOM     30  C   UNL     1      31.156   8.910  -2.464  1.00  0.00     0.016 C
ATOM     31  C   UNL     1      32.197   8.360  -3.389  1.00  0.00     0.016 C
BRANCH  29  32
ATOM     32  C   UNL     1      30.785  10.041  -4.791  1.00  0.00     0.094 C
BRANCH  32  33
ATOM     33  N   UNL     1      29.547  10.644  -4.305  1.00  0.00    -0.314 NA
ATOM     34  H   UNL     1      29.583  11.652  -4.455  1.00  0.00     0.122 HD
BRANCH  33  35
ATOM     35  C   UNL     1      28.344  10.060  -4.894  1.00  0.00     0.107 C
ATOM     36  G   UNL     1      27.658  11.007  -5.899  1.00  0.00     0.000 C
ENDBRANCH  33  35
ENDBRANCH  32  33
ENDBRANCH  29  32
ENDBRANCH   7  29
TORSDOF 1
ENDMDL
MODEL 9
REMARK VINA RESULT:      -8.0      1.681      3.783
REMARK SMILES CC(C)(C)[C@H]1NC(=O)c2c[nH]c3ncc(nc23)[C@]2(CC2)CNC[C@@]2(C#N)CN(C2)C1=O
REMARK SMILES IDX 9 1 10 2 11 3 12 4 13 5 14 6 15 7 16 8 17 9 7 11 6 12 8 13
REMARK SMILES IDX 5 15 2 16 1 17 3 18 4 19 30 20 31 21 28 22 27 23 29 24 24 25
REMARK SMILES IDX 25 26 26 27 18 29 19 30 20 31 21 32 22 33 23 35
REMARK H PARENT 11 10 6 14 22 34
REMARK Flexibility Score:  106.900
ROOT
ATOM      1  C   UNL     1      29.060  11.934  -4.572  1.00  0.00     0.085 A
ATOM      2  C   UNL     1      28.013  11.341  -5.269  1.00  0.00     0.100 A
ATOM      3  N   UNL     1      28.313  10.016  -5.468  1.00  0.00    -0.344 N
ATOM      4  C   UNL     1      29.521   9.733  -4.896  1.00  0.00     0.156 A
ATOM      5  N   UNL     1      30.139   8.538  -4.903  1.00  0.00    -0.235 NA
ATOM      6  C   UNL     1      31.313   8.606  -4.216  1.00  0.00     0.138 A
ATOM      7  C   UNL     1      31.824   9.743  -3.569  1.00  0.00     0.067 A
ATOM      8  N   UNL     1      31.161  10.930  -3.616  1.00  0.00    -0.246 NA
ATOM      9  C   UNL     1      29.992  10.899  -4.305  1.00  0.00     0.120 A
ATOM     10  H   UNL     1      27.745   9.338  -5.954  1.00  0.00     0.168 HD
ENDROOT
BRANCH   1  11
ATOM     11  C   UNL     1      29.129  13.341  -4.207  1.00  0.00     0.255 C
ATOM     12  N   UNL     1      29.046  14.215  -5.267  1.00  0.00    -0.340 N
ATOM     13  O   UNL     1      29.220  13.695  -3.037  1.00  0.00    -0.269 OA
ATOM     14  H   UNL     1      29.117  13.802  -6.195  1.00  0.00     0.164 HD
BRANCH  12  15
ATOM     15  C   UNL     1      29.176  15.672  -5.143  1.00  0.00     0.177 C
BRANCH  15  16
ATOM     16  C   UNL     1      27.942  16.540  -5.623  1.00  0.00    -0.009 C
ATOM     17  C   UNL     1      27.936  17.891  -4.862  1.00  0.00     0.013 C
ATOM     18  C   UNL     1      26.579  15.861  -5.385  1.00  0.00     0.013 C
ATOM     19  C   UNL     1      28.027  16.919  -7.122  1.00  0.00     0.013 C
ENDBRANCH  15  16
BRANCH  15  20
ATOM     20  C   UNL     1      30.532  16.104  -5.757  1.00  0.00     0.245 C
ATOM     21  O   UNL     1      31.249  15.279  -6.334  1.00  0.00    -0.272 OA
BRANCH  20  22
ATOM     22  N   UNL     1      30.978  17.384  -5.579  1.00  0.00    -0.337 N
ATOM     23  C   UNL     1      31.489  17.990  -4.359  1.00  0.00     0.145 C
ATOM     24  C   UNL     1      31.009  18.608  -6.353  1.00  0.00     0.145 C
ATOM     25  C   UNL     1      31.876  19.220  -5.217  1.00  0.00     0.105 C
ATOM     26  C   UNL     1      31.340  20.465  -4.693  1.00  0.00     0.074 C
ATOM     27  N   UNL     1      30.923  21.463  -4.275  1.00  0.00    -0.198 NA
ATOM     28  G   UNL     1      33.378  19.395  -5.521  1.00  0.00     0.000 C
ENDBRANCH  20  22
ENDBRANCH  15  20
ENDBRANCH  12  15
ENDBRANCH   1  11
BRANCH   7  29
ATOM     29  C   UNL     1      33.141   9.691  -2.790  1.00  0.00     0.027 C
ATOM     30  C   UNL     1      33.685   8.341  -2.337  1.00  0.00     0.016 C
ATOM     31  C   UNL     1      33.071   9.262  -1.328  1.00  0.00     0.016 C
BRANCH  29  32
ATOM     32  C   UNL     1      34.139  10.782  -3.154  1.00  0.00     0.094 C
BRANCH  32  33
ATOM     33  N   UNL     1      33.429  12.057  -3.188  1.00  0.00    -0.314 NA
ATOM     34  H   UNL     1      32.478  11.921  -2.846  1.00  0.00     0.122 HD
BRANCH  33  35
ATOM     35  C   UNL     1      34.111  13.123  -2.457  1.00  0.00     0.107 C
ATOM     36  G   UNL     1      35.454  12.662  -1.856  1.00  0.00     0.000 C
ENDBRANCH  33  35
ENDBRANCH  32  33
ENDBRANCH  29  32
ENDBRANCH   7  29
TORSDOF 1
ENDMDL
