MODEL 1
REMARK VINA RESULT:      -8.6      0.000      0.000
REMARK SMILES NC(=O)c1cnc2c3c1[nH]c1cc(ccc13)-c1ccc(nn1)N1CCS(=O)(=O)C[C@@H]1CNC[C@@H]1C[C@H]1[C@H](C(F)(F)F)N2
REMARK SMILES IDX 4 1 5 2 6 3 7 4 8 5 9 6 10 7 11 8 12 9 13 10 14 11 15 12
REMARK SMILES IDX 16 13 2 15 1 16 3 17 42 20 37 22 36 23 35 24 34 25 38 27
REMARK SMILES IDX 39 28 40 29 41 30 17 31 18 32 22 33 19 34 21 35 20 36 23 37
REMARK SMILES IDX 24 38 30 39 25 40 29 41 26 42 27 43 28 44 31 45 32 46 33 48
REMARK H PARENT 10 14 1 18 1 19 42 21 32 47
REMARK Flexibility Score:   57.900
ROOT
ATOM      1  C   UNL     1      31.251   9.239  -3.732  1.00  0.00     0.082 A
ATOM      2  C   UNL     1      30.916   8.065  -4.399  1.00  0.00     0.129 A
ATOM      3  N   UNL     1      29.951   7.942  -5.353  1.00  0.00    -0.238 NA
ATOM      4  C   UNL     1      29.220   9.027  -5.696  1.00  0.00     0.136 A
ATOM      5  C   UNL     1      29.401  10.225  -4.977  1.00  0.00     0.051 A
ATOM      6  C   UNL     1      30.456  10.336  -4.075  1.00  0.00     0.065 A
ATOM      7  N   UNL     1      30.523  11.664  -3.699  1.00  0.00    -0.354 N
ATOM      8  C   UNL     1      29.542  12.398  -4.325  1.00  0.00     0.047 A
ATOM      9  C   UNL     1      29.323  13.783  -4.410  1.00  0.00     0.037 A
ATOM     10  C   UNL     1      28.221  14.217  -5.174  1.00  0.00     0.004 A
ATOM     11  C   UNL     1      27.282  13.273  -5.630  1.00  0.00     0.011 A
ATOM     12  C   UNL     1      27.532  11.909  -5.567  1.00  0.00     0.012 A
ATOM     13  C   UNL     1      28.731  11.478  -4.986  1.00  0.00     0.011 A
ATOM     14  H   UNL     1      31.249  12.032  -3.095  1.00  0.00     0.167 HD
ENDROOT
BRANCH   1  15
ATOM     15  C   UNL     1      32.353   9.382  -2.759  1.00  0.00     0.252 C
ATOM     16  N   UNL     1      32.272   8.719  -1.569  1.00  0.00    -0.365 N
ATOM     17  O   UNL     1      33.319  10.096  -3.013  1.00  0.00    -0.269 OA
ATOM     18  H   UNL     1      31.495   8.156  -1.258  1.00  0.00     0.159 HD
ATOM     19  H   UNL     1      33.043   8.844  -0.923  1.00  0.00     0.159 HD
ENDBRANCH   1  15
BRANCH   4  20
ATOM     20  N   UNL     1      28.436   8.955  -6.853  1.00  0.00    -0.358 N
ATOM     21  H   UNL     1      27.864   9.794  -6.923  1.00  0.00     0.162 HD
BRANCH  20  22
ATOM     22  C   UNL     1      27.608   7.710  -6.875  1.00  0.00     0.189 C
BRANCH  22  23
ATOM     23  C   UNL     1      26.901   7.589  -8.226  1.00  0.00     0.025 C
ATOM     24  C   UNL     1      26.698   6.190  -8.774  1.00  0.00     0.011 C
ATOM     25  C   UNL     1      27.612   7.134  -9.503  1.00  0.00     0.009 C
ATOM     26  G   UNL     1      27.194   7.574 -10.885  1.00  0.00     0.000 C
ENDBRANCH  22  23
BRANCH  22  27
ATOM     27  C   UNL     1      26.578   7.679  -5.702  1.00  0.00     0.408 C
ATOM     28  F   UNL     1      26.498   8.888  -5.093  1.00  0.00    -0.169 F
ATOM     29  F   UNL     1      25.333   7.355  -6.127  1.00  0.00    -0.169 F
ATOM     30  F   UNL     1      26.910   6.772  -4.756  1.00  0.00    -0.169 F
ENDBRANCH  22  27
ENDBRANCH  20  22
ENDBRANCH   4  20
BRANCH  10  31
ATOM     31  C   UNL     1      28.133  15.562  -5.770  1.00  0.00     0.093 A
ATOM     32  C   UNL     1      27.360  16.528  -5.137  1.00  0.00     0.035 A
ATOM     33  N   UNL     1      29.177  15.924  -6.547  1.00  0.00    -0.148 NA
ATOM     34  C   UNL     1      27.845  17.830  -5.094  1.00  0.00     0.051 A
ATOM     35  N   UNL     1      29.631  17.213  -6.518  1.00  0.00    -0.132 NA
ATOM     36  C   UNL     1      29.054  18.122  -5.707  1.00  0.00     0.151 A
BRANCH  36  37
ATOM     37  N   UNL     1      29.762  19.269  -5.369  1.00  0.00    -0.349 N
ATOM     38  C   UNL     1      30.124  20.150  -6.484  1.00  0.00     0.134 C
ATOM     39  C   UNL     1      30.589  19.227  -4.127  1.00  0.00     0.112 C
ATOM     40  C   UNL     1      31.610  20.133  -6.741  1.00  0.00     0.158 C
ATOM     41  C   UNL     1      31.341  20.545  -3.968  1.00  0.00     0.163 C
ATOM     42  S   UNL     1      32.441  20.833  -5.336  1.00  0.00     0.154 S
ATOM     43  O   UNL     1      33.653  20.068  -5.106  1.00  0.00    -0.229 OA
ATOM     44  O   UNL     1      32.510  22.270  -5.534  1.00  0.00    -0.229 OA
BRANCH  39  45
ATOM     45  C   UNL     1      31.584  18.003  -4.036  1.00  0.00     0.107 C
BRANCH  45  46
ATOM     46  N   UNL     1      31.143  16.948  -3.101  1.00  0.00    -0.314 NA
ATOM     47  H   UNL     1      30.199  16.658  -3.355  1.00  0.00     0.122 HD
BRANCH  46  48
ATOM     48  C   UNL     1      31.999  15.755  -3.177  1.00  0.00     0.085 C
ATOM     49  G   UNL     1      32.904  15.922  -4.373  1.00  0.00     0.000 C
ENDBRANCH  46  48
ENDBRANCH  45  46
ENDBRANCH  39  45
ENDBRANCH  36  37
ENDBRANCH  10  31
TORSDOF 2
ENDMDL
MODEL 2
REMARK VINA RESULT:      -8.6      4.652      7.392
REMARK SMILES NC(=O)c1cnc2c3c1[nH]c1cc(ccc13)-c1ccc(nn1)N1CCS(=O)(=O)C[C@@H]1CNC[C@@H]1C[C@H]1[C@H](C(F)(F)F)N2
REMARK SMILES IDX 4 1 5 2 6 3 7 4 8 5 9 6 10 7 11 8 12 9 13 10 14 11 15 12
REMARK SMILES IDX 16 13 2 15 1 16 3 17 42 20 37 22 36 23 35 24 34 25 38 27
REMARK SMILES IDX 39 28 40 29 41 30 17 31 18 32 22 33 19 34 21 35 20 36 23 37
REMARK SMILES IDX 24 38 30 39 25 40 29 41 26 42 27 43 28 44 31 45 32 46 33 48
REMARK H PARENT 10 14 1 18 1 19 42 21 32 47
REMARK Flexibility Score:   57.900
ROOT
ATOM      1  C   UNL     1      34.227  10.975  -2.396  1.00  0.00     0.082 A
ATOM      2  C   UNL     1      35.123  11.983  -2.055  1.00  0.00     0.129 A
ATOM      3  N   UNL     1      34.993  13.301  -2.373  1.00  0.00    -0.238 NA
ATOM      4  C   UNL     1      33.927  13.703  -3.101  1.00  0.00     0.136 A
ATOM      5  C   UNL     1      33.039  12.731  -3.602  1.00  0.00     0.051 A
ATOM      6  C   UNL     1      33.154  11.409  -3.181  1.00  0.00     0.065 A
ATOM      7  N   UNL     1      32.038  10.741  -3.646  1.00  0.00    -0.354 N
ATOM      8  C   UNL     1      31.222  11.593  -4.357  1.00  0.00     0.047 A
ATOM      9  C   UNL     1      29.919  11.437  -4.856  1.00  0.00     0.037 A
ATOM     10  C   UNL     1      29.346  12.538  -5.524  1.00  0.00     0.004 A
ATOM     11  C   UNL     1      30.154  13.644  -5.849  1.00  0.00     0.011 A
ATOM     12  C   UNL     1      31.427  13.796  -5.319  1.00  0.00     0.012 A
ATOM     13  C   UNL     1      31.925  12.788  -4.483  1.00  0.00     0.011 A
ATOM     14  H   UNL     1      31.837   9.773  -3.423  1.00  0.00     0.167 HD
ENDROOT
BRANCH   1  15
ATOM     15  C   UNL     1      34.332   9.563  -1.978  1.00  0.00     0.252 C
ATOM     16  N   UNL     1      35.239   9.225  -1.016  1.00  0.00    -0.365 N
ATOM     17  O   UNL     1      33.622   8.705  -2.495  1.00  0.00    -0.269 OA
ATOM     18  H   UNL     1      35.895   9.853  -0.576  1.00  0.00     0.159 HD
ATOM     19  H   UNL     1      35.288   8.247  -0.757  1.00  0.00     0.159 HD
ENDBRANCH   1  15
BRANCH   4  20
ATOM     20  N   UNL     1      33.664  15.076  -3.182  1.00  0.00    -0.358 N
ATOM     21  H   UNL     1      34.108  15.548  -2.398  1.00  0.00     0.162 HD
BRANCH  20  22
ATOM     22  C   UNL     1      32.195  15.347  -3.240  1.00  0.00     0.189 C
BRANCH  22  23
ATOM     23  C   UNL     1      31.957  16.779  -3.722  1.00  0.00     0.025 C
ATOM     24  C   UNL     1      30.566  17.113  -4.227  1.00  0.00     0.011 C
ATOM     25  C   UNL     1      31.718  17.135  -5.192  1.00  0.00     0.009 C
ATOM     26  G   UNL     1      32.092  18.468  -5.792  1.00  0.00     0.000 C
ENDBRANCH  22  23
BRANCH  22  27
ATOM     27  C   UNL     1      31.505  15.103  -1.860  1.00  0.00     0.408 C
ATOM     28  F   UNL     1      32.270  14.310  -1.068  1.00  0.00    -0.169 F
ATOM     29  F   UNL     1      31.288  16.259  -1.188  1.00  0.00    -0.169 F
ATOM     30  F   UNL     1      30.302  14.500  -1.991  1.00  0.00    -0.169 F
ENDBRANCH  22  27
ENDBRANCH  20  22
ENDBRANCH   4  20
BRANCH  10  31
ATOM     31  C   UNL     1      27.892  12.734  -5.657  1.00  0.00     0.093 A
ATOM     32  C   UNL     1      27.313  13.865  -5.093  1.00  0.00     0.035 A
ATOM     33  N   UNL     1      27.317  12.131  -6.720  1.00  0.00    -0.148 NA
ATOM     34  C   UNL     1      26.308  14.511  -5.806  1.00  0.00     0.051 A
ATOM     35  N   UNL     1      26.313  12.762  -7.400  1.00  0.00    -0.132 NA
ATOM     36  C   UNL     1      25.901  13.990  -7.025  1.00  0.00     0.151 A
BRANCH  36  37
ATOM     37  N   UNL     1      25.213  14.777  -7.939  1.00  0.00    -0.349 N
ATOM     38  C   UNL     1      24.386  14.055  -8.912  1.00  0.00     0.134 C
ATOM     39  C   UNL     1      25.788  16.115  -8.267  1.00  0.00     0.112 C
ATOM     40  C   UNL     1      24.963  14.146 -10.302  1.00  0.00     0.158 C
ATOM     41  C   UNL     1      24.935  16.791  -9.335  1.00  0.00     0.163 C
ATOM     42  S   UNL     1      24.900  15.840 -10.837  1.00  0.00     0.154 S
ATOM     43  O   UNL     1      26.117  16.121 -11.575  1.00  0.00    -0.229 OA
ATOM     44  O   UNL     1      23.604  16.059 -11.453  1.00  0.00    -0.229 OA
BRANCH  39  45
ATOM     45  C   UNL     1      27.308  16.093  -8.699  1.00  0.00     0.107 C
BRANCH  45  46
ATOM     46  N   UNL     1      28.193  16.855  -7.796  1.00  0.00    -0.314 NA
ATOM     47  H   UNL     1      28.833  17.414  -8.358  1.00  0.00     0.122 HD
BRANCH  46  48
ATOM     48  C   UNL     1      27.438  17.786  -6.944  1.00  0.00     0.085 C
ATOM     49  G   UNL     1      28.374  18.902  -6.551  1.00  0.00     0.000 C
ENDBRANCH  46  48
ENDBRANCH  45  46
ENDBRANCH  39  45
ENDBRANCH  36  37
ENDBRANCH  10  31
TORSDOF 2
ENDMDL
MODEL 3
REMARK VINA RESULT:      -8.2      4.709      9.894
REMARK SMILES NC(=O)c1cnc2c3c1[nH]c1cc(ccc13)-c1ccc(nn1)N1CCS(=O)(=O)C[C@@H]1CNC[C@@H]1C[C@H]1[C@H](C(F)(F)F)N2
REMARK SMILES IDX 4 1 5 2 6 3 7 4 8 5 9 6 10 7 11 8 12 9 13 10 14 11 15 12
REMARK SMILES IDX 16 13 2 15 1 16 3 17 42 20 37 22 36 23 35 24 34 25 38 27
REMARK SMILES IDX 39 28 40 29 41 30 17 31 18 32 22 33 19 34 21 35 20 36 23 37
REMARK SMILES IDX 24 38 30 39 25 40 29 41 26 42 27 43 28 44 31 45 32 46 33 48
REMARK H PARENT 10 14 1 18 1 19 42 21 32 47
REMARK Flexibility Score:   57.900
ROOT
ATOM      1  C   UNL     1      32.845  16.762  -5.556  1.00  0.00     0.082 A
ATOM      2  C   UNL     1      33.824  16.713  -4.568  1.00  0.00     0.129 A
ATOM      3  N   UNL     1      33.832  15.869  -3.500  1.00  0.00    -0.238 NA
ATOM      4  C   UNL     1      32.808  15.000  -3.337  1.00  0.00     0.136 A
ATOM      5  C   UNL     1      31.709  15.071  -4.215  1.00  0.00     0.051 A
ATOM      6  C   UNL     1      31.779  15.882  -5.344  1.00  0.00     0.065 A
ATOM      7  N   UNL     1      30.676  15.584  -6.121  1.00  0.00    -0.354 N
ATOM      8  C   UNL     1      29.904  14.617  -5.519  1.00  0.00     0.047 A
ATOM      9  C   UNL     1      28.813  13.867  -5.989  1.00  0.00     0.037 A
ATOM     10  C   UNL     1      28.258  12.914  -5.112  1.00  0.00     0.004 A
ATOM     11  C   UNL     1      28.663  12.899  -3.764  1.00  0.00     0.011 A
ATOM     12  C   UNL     1      29.763  13.621  -3.326  1.00  0.00     0.012 A
ATOM     13  C   UNL     1      30.446  14.420  -4.252  1.00  0.00     0.011 A
ATOM     14  H   UNL     1      30.518  15.988  -7.037  1.00  0.00     0.167 HD
ENDROOT
BRANCH   1  15
ATOM     15  C   UNL     1      32.885  17.622  -6.755  1.00  0.00     0.252 C
ATOM     16  N   UNL     1      33.888  17.444  -7.663  1.00  0.00    -0.365 N
ATOM     17  O   UNL     1      32.036  18.493  -6.925  1.00  0.00    -0.269 OA
ATOM     18  H   UNL     1      34.653  16.791  -7.577  1.00  0.00     0.159 HD
ATOM     19  H   UNL     1      33.887  18.055  -8.471  1.00  0.00     0.159 HD
ENDBRANCH   1  15
BRANCH   4  20
ATOM     20  N   UNL     1      32.963  13.966  -2.407  1.00  0.00    -0.358 N
ATOM     21  H   UNL     1      33.352  14.346  -1.546  1.00  0.00     0.162 HD
BRANCH  20  22
ATOM     22  C   UNL     1      33.801  12.857  -2.958  1.00  0.00     0.189 C
BRANCH  22  23
ATOM     23  C   UNL     1      33.035  11.537  -2.856  1.00  0.00     0.025 C
ATOM     24  C   UNL     1      33.639  10.335  -3.556  1.00  0.00     0.011 C
ATOM     25  C   UNL     1      32.331  10.886  -4.050  1.00  0.00     0.009 C
ATOM     26  G   UNL     1      31.113  10.006  -3.914  1.00  0.00     0.000 C
ENDBRANCH  22  23
BRANCH  22  27
ATOM     27  C   UNL     1      35.181  12.758  -2.234  1.00  0.00     0.408 C
ATOM     28  F   UNL     1      35.022  12.731  -0.886  1.00  0.00    -0.169 F
ATOM     29  F   UNL     1      35.860  11.639  -2.584  1.00  0.00    -0.169 F
ATOM     30  F   UNL     1      35.986  13.805  -2.524  1.00  0.00    -0.169 F
ENDBRANCH  22  27
ENDBRANCH  20  22
ENDBRANCH   4  20
BRANCH  10  31
ATOM     31  C   UNL     1      27.490  11.744  -5.573  1.00  0.00     0.093 A
ATOM     32  C   UNL     1      27.071  11.695  -6.897  1.00  0.00     0.035 A
ATOM     33  N   UNL     1      27.694  10.603  -4.879  1.00  0.00    -0.148 NA
ATOM     34  C   UNL     1      27.137  10.475  -7.561  1.00  0.00     0.051 A
ATOM     35  N   UNL     1      27.732   9.404  -5.536  1.00  0.00    -0.132 NA
ATOM     36  C   UNL     1      27.583   9.355  -6.875  1.00  0.00     0.151 A
BRANCH  36  37
ATOM     37  N   UNL     1      28.036   8.236  -7.562  1.00  0.00    -0.349 N
ATOM     38  C   UNL     1      27.365   7.951  -8.835  1.00  0.00     0.134 C
ATOM     39  C   UNL     1      28.655   7.139  -6.761  1.00  0.00     0.112 C
ATOM     40  C   UNL     1      26.516   6.708  -8.746  1.00  0.00     0.158 C
ATOM     41  C   UNL     1      29.018   5.977  -7.679  1.00  0.00     0.163 C
ATOM     42  S   UNL     1      27.579   5.309  -8.483  1.00  0.00     0.154 S
ATOM     43  O   UNL     1      26.918   4.416  -7.548  1.00  0.00    -0.229 OA
ATOM     44  O   UNL     1      28.001   4.823  -9.784  1.00  0.00    -0.229 OA
BRANCH  39  45
ATOM     45  C   UNL     1      27.781   6.636  -5.544  1.00  0.00     0.107 C
BRANCH  45  46
ATOM     46  N   UNL     1      26.328   6.798  -5.750  1.00  0.00    -0.314 NA
ATOM     47  H   UNL     1      26.021   6.130  -6.457  1.00  0.00     0.122 HD
BRANCH  46  48
ATOM     48  C   UNL     1      25.565   6.515  -4.525  1.00  0.00     0.085 C
ATOM     49  G   UNL     1      25.825   5.076  -4.152  1.00  0.00     0.000 C
ENDBRANCH  46  48
ENDBRANCH  45  46
ENDBRANCH  39  45
ENDBRANCH  36  37
ENDBRANCH  10  31
TORSDOF 2
ENDMDL
MODEL 4
REMARK VINA RESULT:      -8.2      1.353      1.866
REMARK SMILES NC(=O)c1cnc2c3c1[nH]c1cc(ccc13)-c1ccc(nn1)N1CCS(=O)(=O)C[C@@H]1CNC[C@@H]1C[C@H]1[C@H](C(F)(F)F)N2
REMARK SMILES IDX 4 1 5 2 6 3 7 4 8 5 9 6 10 7 11 8 12 9 13 10 14 11 15 12
REMARK SMILES IDX 16 13 2 15 1 16 3 17 42 20 37 22 36 23 35 24 34 25 38 27
REMARK SMILES IDX 39 28 40 29 41 30 17 31 18 32 22 33 19 34 21 35 20 36 23 37
REMARK SMILES IDX 24 38 30 39 25 40 29 41 26 42 27 43 28 44 31 45 32 46 33 48
REMARK H PARENT 10 14 1 18 1 19 42 21 32 47
REMARK Flexibility Score:   57.900
ROOT
ATOM      1  C   UNL     1      31.062   8.755  -3.767  1.00  0.00     0.082 A
ATOM      2  C   UNL     1      30.767   7.614  -4.507  1.00  0.00     0.129 A
ATOM      3  N   UNL     1      29.851   7.534  -5.512  1.00  0.00    -0.238 NA
ATOM      4  C   UNL     1      29.130   8.630  -5.836  1.00  0.00     0.136 A
ATOM      5  C   UNL     1      29.268   9.793  -5.053  1.00  0.00     0.051 A
ATOM      6  C   UNL     1      30.277   9.864  -4.096  1.00  0.00     0.065 A
ATOM      7  N   UNL     1      30.317  11.172  -3.652  1.00  0.00    -0.354 N
ATOM      8  C   UNL     1      29.362  11.932  -4.289  1.00  0.00     0.047 A
ATOM      9  C   UNL     1      29.138  13.318  -4.317  1.00  0.00     0.037 A
ATOM     10  C   UNL     1      28.072  13.785  -5.112  1.00  0.00     0.004 A
ATOM     11  C   UNL     1      27.163  12.860  -5.659  1.00  0.00     0.011 A
ATOM     12  C   UNL     1      27.419  11.496  -5.651  1.00  0.00     0.012 A
ATOM     13  C   UNL     1      28.591  11.042  -5.033  1.00  0.00     0.011 A
ATOM     14  H   UNL     1      31.010  11.514  -2.996  1.00  0.00     0.167 HD
ENDROOT
BRANCH   1  15
ATOM     15  C   UNL     1      32.114   8.855  -2.736  1.00  0.00     0.252 C
ATOM     16  N   UNL     1      31.769   8.701  -1.425  1.00  0.00    -0.365 N
ATOM     17  O   UNL     1      33.278   9.086  -3.053  1.00  0.00    -0.269 OA
ATOM     18  H   UNL     1      30.834   8.561  -1.072  1.00  0.00     0.159 HD
ATOM     19  H   UNL     1      32.515   8.781  -0.744  1.00  0.00     0.159 HD
ENDBRANCH   1  15
BRANCH   4  20
ATOM     20  N   UNL     1      28.405   8.612  -7.033  1.00  0.00    -0.358 N
ATOM     21  H   UNL     1      28.512   9.508  -7.503  1.00  0.00     0.162 HD
BRANCH  20  22
ATOM     22  C   UNL     1      26.968   8.273  -6.795  1.00  0.00     0.189 C
BRANCH  22  23
ATOM     23  C   UNL     1      26.839   6.785  -6.468  1.00  0.00     0.025 C
ATOM     24  C   UNL     1      25.445   6.259  -6.188  1.00  0.00     0.011 C
ATOM     25  C   UNL     1      26.458   6.266  -5.079  1.00  0.00     0.009 C
ATOM     26  G   UNL     1      26.906   4.929  -4.542  1.00  0.00     0.000 C
ENDBRANCH  22  23
BRANCH  22  27
ATOM     27  C   UNL     1      26.073   8.653  -8.017  1.00  0.00     0.408 C
ATOM     28  F   UNL     1      26.071   9.995  -8.220  1.00  0.00    -0.169 F
ATOM     29  F   UNL     1      26.500   8.070  -9.163  1.00  0.00    -0.169 F
ATOM     30  F   UNL     1      24.787   8.271  -7.846  1.00  0.00    -0.169 F
ENDBRANCH  22  27
ENDBRANCH  20  22
ENDBRANCH   4  20
BRANCH  10  31
ATOM     31  C   UNL     1      28.004  15.156  -5.646  1.00  0.00     0.093 A
ATOM     32  C   UNL     1      27.291  16.118  -4.939  1.00  0.00     0.035 A
ATOM     33  N   UNL     1      29.027  15.520  -6.451  1.00  0.00    -0.148 NA
ATOM     34  C   UNL     1      27.821  17.401  -4.861  1.00  0.00     0.051 A
ATOM     35  N   UNL     1      29.525  16.791  -6.386  1.00  0.00    -0.132 NA
ATOM     36  C   UNL     1      29.012  17.681  -5.512  1.00  0.00     0.151 A
BRANCH  36  37
ATOM     37  N   UNL     1      29.771  18.789  -5.156  1.00  0.00    -0.349 N
ATOM     38  C   UNL     1      29.463  20.033  -5.871  1.00  0.00     0.134 C
ATOM     39  C   UNL     1      31.136  18.541  -4.606  1.00  0.00     0.112 C
ATOM     40  C   UNL     1      30.578  20.423  -6.807  1.00  0.00     0.158 C
ATOM     41  C   UNL     1      31.833  19.873  -4.347  1.00  0.00     0.163 C
ATOM     42  S   UNL     1      32.022  20.810  -5.847  1.00  0.00     0.154 S
ATOM     43  O   UNL     1      33.181  20.295  -6.554  1.00  0.00    -0.229 OA
ATOM     44  O   UNL     1      31.950  22.214  -5.486  1.00  0.00    -0.229 OA
BRANCH  39  45
ATOM     45  C   UNL     1      32.045  17.599  -5.491  1.00  0.00     0.107 C
BRANCH  45  46
ATOM     46  N   UNL     1      33.146  16.962  -4.742  1.00  0.00    -0.314 NA
ATOM     47  H   UNL     1      33.424  17.579  -3.980  1.00  0.00     0.122 HD
BRANCH  46  48
ATOM     48  C   UNL     1      32.734  15.685  -4.139  1.00  0.00     0.085 C
ATOM     49  G   UNL     1      32.354  14.755  -5.264  1.00  0.00     0.000 C
ENDBRANCH  46  48
ENDBRANCH  45  46
ENDBRANCH  39  45
ENDBRANCH  36  37
ENDBRANCH  10  31
TORSDOF 2
ENDMDL
MODEL 5
REMARK VINA RESULT:      -8.1      2.846      4.386
REMARK SMILES NC(=O)c1cnc2c3c1[nH]c1cc(ccc13)-c1ccc(nn1)N1CCS(=O)(=O)C[C@@H]1CNC[C@@H]1C[C@H]1[C@H](C(F)(F)F)N2
REMARK SMILES IDX 4 1 5 2 6 3 7 4 8 5 9 6 10 7 11 8 12 9 13 10 14 11 15 12
REMARK SMILES IDX 16 13 2 15 1 16 3 17 42 20 37 22 36 23 35 24 34 25 38 27
REMARK SMILES IDX 39 28 40 29 41 30 17 31 18 32 22 33 19 34 21 35 20 36 23 37
REMARK SMILES IDX 24 38 30 39 25 40 29 41 26 42 27 43 28 44 31 45 32 46 33 48
REMARK H PARENT 10 14 1 18 1 19 42 21 32 47
REMARK Flexibility Score:   57.900
ROOT
ATOM      1  C   UNL     1      34.096  11.054  -2.276  1.00  0.00     0.082 A
ATOM      2  C   UNL     1      33.548   9.906  -2.840  1.00  0.00     0.129 A
ATOM      3  N   UNL     1      32.477   9.869  -3.680  1.00  0.00    -0.238 NA
ATOM      4  C   UNL     1      31.850  11.023  -4.003  1.00  0.00     0.136 A
ATOM      5  C   UNL     1      32.255  12.217  -3.374  1.00  0.00     0.051 A
ATOM      6  C   UNL     1      33.408  12.229  -2.594  1.00  0.00     0.065 A
ATOM      7  N   UNL     1      33.679  13.551  -2.299  1.00  0.00    -0.354 N
ATOM      8  C   UNL     1      32.732  14.378  -2.859  1.00  0.00     0.047 A
ATOM      9  C   UNL     1      32.675  15.775  -2.995  1.00  0.00     0.037 A
ATOM     10  C   UNL     1      31.558  16.315  -3.662  1.00  0.00     0.004 A
ATOM     11  C   UNL     1      30.466  15.480  -3.966  1.00  0.00     0.011 A
ATOM     12  C   UNL     1      30.552  14.100  -3.856  1.00  0.00     0.012 A
ATOM     13  C   UNL     1      31.746  13.544  -3.380  1.00  0.00     0.011 A
ATOM     14  H   UNL     1      34.506  13.849  -1.795  1.00  0.00     0.167 HD
ENDROOT
BRANCH   1  15
ATOM     15  C   UNL     1      35.307  11.095  -1.433  1.00  0.00     0.252 C
ATOM     16  N   UNL     1      35.616  10.008  -0.668  1.00  0.00    -0.365 N
ATOM     17  O   UNL     1      36.019  12.096  -1.411  1.00  0.00    -0.269 OA
ATOM     18  H   UNL     1      35.064   9.168  -0.585  1.00  0.00     0.159 HD
ATOM     19  H   UNL     1      36.452  10.073  -0.098  1.00  0.00     0.159 HD
ENDBRANCH   1  15
BRANCH   4  20
ATOM     20  N   UNL     1      30.941  11.004  -5.067  1.00  0.00    -0.358 N
ATOM     21  H   UNL     1      30.657  11.958  -5.281  1.00  0.00     0.162 HD
BRANCH  20  22
ATOM     22  C   UNL     1      29.768  10.126  -4.767  1.00  0.00     0.189 C
BRANCH  22  23
ATOM     23  C   UNL     1      29.881   8.829  -5.570  1.00  0.00     0.025 C
ATOM     24  C   UNL     1      28.623   8.333  -6.257  1.00  0.00     0.011 C
ATOM     25  C   UNL     1      29.214   7.520  -5.139  1.00  0.00     0.009 C
ATOM     26  G   UNL     1      29.760   6.158  -5.488  1.00  0.00     0.000 C
ENDBRANCH  22  23
BRANCH  22  27
ATOM     27  C   UNL     1      28.414  10.847  -5.061  1.00  0.00     0.408 C
ATOM     28  F   UNL     1      28.203  10.961  -6.396  1.00  0.00    -0.169 F
ATOM     29  F   UNL     1      27.358  10.178  -4.539  1.00  0.00    -0.169 F
ATOM     30  F   UNL     1      28.377  12.094  -4.540  1.00  0.00    -0.169 F
ENDBRANCH  22  27
ENDBRANCH  20  22
ENDBRANCH   4  20
BRANCH  10  31
ATOM     31  C   UNL     1      31.570  17.635  -4.319  1.00  0.00     0.093 A
ATOM     32  C   UNL     1      32.026  17.729  -5.628  1.00  0.00     0.035 A
ATOM     33  N   UNL     1      30.681  18.532  -3.839  1.00  0.00    -0.148 NA
ATOM     34  C   UNL     1      31.350  18.578  -6.498  1.00  0.00     0.051 A
ATOM     35  N   UNL     1      30.040  19.380  -4.698  1.00  0.00    -0.132 NA
ATOM     36  C   UNL     1      30.277  19.317  -6.024  1.00  0.00     0.151 A
BRANCH  36  37
ATOM     37  N   UNL     1      29.345  19.857  -6.901  1.00  0.00    -0.349 N
ATOM     38  C   UNL     1      29.254  21.321  -6.917  1.00  0.00     0.134 C
ATOM     39  C   UNL     1      28.168  19.013  -7.261  1.00  0.00     0.112 C
ATOM     40  C   UNL     1      27.955  21.800  -6.319  1.00  0.00     0.158 C
ATOM     41  C   UNL     1      27.230  19.803  -8.169  1.00  0.00     0.163 C
ATOM     42  S   UNL     1      26.616  21.262  -7.357  1.00  0.00     0.154 S
ATOM     43  O   UNL     1      25.516  20.866  -6.497  1.00  0.00    -0.229 OA
ATOM     44  O   UNL     1      26.418  22.271  -8.381  1.00  0.00    -0.229 OA
BRANCH  39  45
ATOM     45  C   UNL     1      27.379  18.417  -6.028  1.00  0.00     0.107 C
BRANCH  45  46
ATOM     46  N   UNL     1      27.980  17.185  -5.479  1.00  0.00    -0.314 NA
ATOM     47  H   UNL     1      28.507  17.423  -4.640  1.00  0.00     0.122 HD
BRANCH  46  48
ATOM     48  C   UNL     1      26.957  16.204  -5.086  1.00  0.00     0.085 C
ATOM     49  G   UNL     1      26.691  15.323  -6.281  1.00  0.00     0.000 C
ENDBRANCH  46  48
ENDBRANCH  45  46
ENDBRANCH  39  45
ENDBRANCH  36  37
ENDBRANCH  10  31
TORSDOF 2
ENDMDL
MODEL 6
REMARK VINA RESULT:      -8.1      4.991     10.086
REMARK SMILES NC(=O)c1cnc2c3c1[nH]c1cc(ccc13)-c1ccc(nn1)N1CCS(=O)(=O)C[C@@H]1CNC[C@@H]1C[C@H]1[C@H](C(F)(F)F)N2
REMARK SMILES IDX 4 1 5 2 6 3 7 4 8 5 9 6 10 7 11 8 12 9 13 10 14 11 15 12
REMARK SMILES IDX 16 13 2 15 1 16 3 17 42 20 37 22 36 23 35 24 34 25 38 27
REMARK SMILES IDX 39 28 40 29 41 30 17 31 18 32 22 33 19 34 21 35 20 36 23 37
REMARK SMILES IDX 24 38 30 39 25 40 29 41 26 42 27 43 28 44 31 45 32 46 33 48
REMARK H PARENT 10 14 1 18 1 19 42 21 32 47
REMARK Flexibility Score:   57.900
ROOT
ATOM      1  C   UNL     1      34.604  11.232  -1.868  1.00  0.00     0.082 A
ATOM      2  C   UNL     1      34.728  12.616  -1.792  1.00  0.00     0.129 A
ATOM      3  N   UNL     1      33.890  13.521  -2.367  1.00  0.00    -0.238 NA
ATOM      4  C   UNL     1      32.845  13.079  -3.103  1.00  0.00     0.136 A
ATOM      5  C   UNL     1      32.718  11.696  -3.344  1.00  0.00     0.051 A
ATOM      6  C   UNL     1      33.539  10.800  -2.666  1.00  0.00     0.065 A
ATOM      7  N   UNL     1      33.049   9.534  -2.922  1.00  0.00    -0.354 N
ATOM      8  C   UNL     1      31.949   9.596  -3.747  1.00  0.00     0.047 A
ATOM      9  C   UNL     1      31.014   8.621  -4.132  1.00  0.00     0.037 A
ATOM     10  C   UNL     1      29.966   9.029  -4.981  1.00  0.00     0.004 A
ATOM     11  C   UNL     1      30.013  10.307  -5.570  1.00  0.00     0.011 A
ATOM     12  C   UNL     1      30.923  11.268  -5.153  1.00  0.00     0.012 A
ATOM     13  C   UNL     1      31.844  10.923  -4.155  1.00  0.00     0.011 A
ATOM     14  H   UNL     1      33.426   8.696  -2.494  1.00  0.00     0.167 HD
ENDROOT
BRANCH   1  15
ATOM     15  C   UNL     1      35.469  10.258  -1.174  1.00  0.00     0.252 C
ATOM     16  N   UNL     1      36.648  10.687  -0.637  1.00  0.00    -0.365 N
ATOM     17  O   UNL     1      35.138   9.078  -1.091  1.00  0.00    -0.269 OA
ATOM     18  H   UNL     1      37.021  11.622  -0.703  1.00  0.00     0.159 HD
ATOM     19  H   UNL     1      37.219   9.991  -0.172  1.00  0.00     0.159 HD
ENDBRANCH   1  15
BRANCH   4  20
ATOM     20  N   UNL     1      31.848  13.997  -3.452  1.00  0.00    -0.358 N
ATOM     21  H   UNL     1      31.059  13.497  -3.857  1.00  0.00     0.162 HD
BRANCH  20  22
ATOM     22  C   UNL     1      32.374  15.052  -4.372  1.00  0.00     0.189 C
BRANCH  22  23
ATOM     23  C   UNL     1      31.767  16.405  -4.001  1.00  0.00     0.025 C
ATOM     24  C   UNL     1      30.638  16.400  -2.989  1.00  0.00     0.011 C
ATOM     25  C   UNL     1      30.350  16.822  -4.402  1.00  0.00     0.009 C
ATOM     26  G   UNL     1      29.940  18.257  -4.625  1.00  0.00     0.000 C
ENDBRANCH  22  23
BRANCH  22  27
ATOM     27  C   UNL     1      32.094  14.707  -5.869  1.00  0.00     0.408 C
ATOM     28  F   UNL     1      32.758  13.583  -6.241  1.00  0.00    -0.169 F
ATOM     29  F   UNL     1      30.777  14.498  -6.105  1.00  0.00    -0.169 F
ATOM     30  F   UNL     1      32.483  15.699  -6.702  1.00  0.00    -0.169 F
ENDBRANCH  22  27
ENDBRANCH  20  22
ENDBRANCH   4  20
BRANCH  10  31
ATOM     31  C   UNL     1      28.678   8.319  -5.072  1.00  0.00     0.093 A
ATOM     32  C   UNL     1      27.528   9.047  -5.353  1.00  0.00     0.035 A
ATOM     33  N   UNL     1      28.757   7.011  -5.402  1.00  0.00    -0.148 NA
ATOM     34  C   UNL     1      26.592   8.486  -6.215  1.00  0.00     0.051 A
ATOM     35  N   UNL     1      27.817   6.462  -6.230  1.00  0.00    -0.132 NA
ATOM     36  C   UNL     1      26.822   7.220  -6.731  1.00  0.00     0.151 A
BRANCH  36  37
ATOM     37  N   UNL     1      26.150   6.784  -7.867  1.00  0.00    -0.349 N
ATOM     38  C   UNL     1      25.878   5.345  -7.937  1.00  0.00     0.134 C
ATOM     39  C   UNL     1      26.301   7.596  -9.110  1.00  0.00     0.112 C
ATOM     40  C   UNL     1      26.708   4.677  -9.004  1.00  0.00     0.158 C
ATOM     41  C   UNL     1      25.554   6.921 -10.256  1.00  0.00     0.163 C
ATOM     42  S   UNL     1      26.207   5.301 -10.591  1.00  0.00     0.154 S
ATOM     43  O   UNL     1      27.398   5.457 -11.406  1.00  0.00    -0.229 OA
ATOM     44  O   UNL     1      25.103   4.482 -11.059  1.00  0.00    -0.229 OA
BRANCH  39  45
ATOM     45  C   UNL     1      27.795   7.903  -9.522  1.00  0.00     0.107 C
BRANCH  45  46
ATOM     46  N   UNL     1      28.126   9.342  -9.526  1.00  0.00    -0.314 NA
ATOM     47  H   UNL     1      29.140   9.445  -9.486  1.00  0.00     0.122 HD
BRANCH  46  48
ATOM     48  C   UNL     1      27.671  10.007 -10.756  1.00  0.00     0.085 C
ATOM     49  G   UNL     1      27.356  11.440 -10.406  1.00  0.00     0.000 C
ENDBRANCH  46  48
ENDBRANCH  45  46
ENDBRANCH  39  45
ENDBRANCH  36  37
ENDBRANCH  10  31
TORSDOF 2
ENDMDL
MODEL 7
REMARK VINA RESULT:      -8.1      3.560      5.122
REMARK SMILES NC(=O)c1cnc2c3c1[nH]c1cc(ccc13)-c1ccc(nn1)N1CCS(=O)(=O)C[C@@H]1CNC[C@@H]1C[C@H]1[C@H](C(F)(F)F)N2
REMARK SMILES IDX 4 1 5 2 6 3 7 4 8 5 9 6 10 7 11 8 12 9 13 10 14 11 15 12
REMARK SMILES IDX 16 13 2 15 1 16 3 17 42 20 37 22 36 23 35 24 34 25 38 27
REMARK SMILES IDX 39 28 40 29 41 30 17 31 18 32 22 33 19 34 21 35 20 36 23 37
REMARK SMILES IDX 24 38 30 39 25 40 29 41 26 42 27 43 28 44 31 45 32 46 33 48
REMARK H PARENT 10 14 1 18 1 19 42 21 32 47
REMARK Flexibility Score:   57.900
ROOT
ATOM      1  C   UNL     1      33.652  12.264  -3.000  1.00  0.00     0.082 A
ATOM      2  C   UNL     1      33.285  11.014  -3.490  1.00  0.00     0.129 A
ATOM      3  N   UNL     1      32.163  10.742  -4.211  1.00  0.00    -0.238 NA
ATOM      4  C   UNL     1      31.292  11.742  -4.479  1.00  0.00     0.136 A
ATOM      5  C   UNL     1      31.516  13.011  -3.910  1.00  0.00     0.051 A
ATOM      6  C   UNL     1      32.717  13.272  -3.256  1.00  0.00     0.065 A
ATOM      7  N   UNL     1      32.751  14.630  -3.007  1.00  0.00    -0.354 N
ATOM      8  C   UNL     1      31.607  15.239  -3.472  1.00  0.00     0.047 A
ATOM      9  C   UNL     1      31.264  16.593  -3.618  1.00  0.00     0.037 A
ATOM     10  C   UNL     1      30.000  16.884  -4.169  1.00  0.00     0.004 A
ATOM     11  C   UNL     1      29.069  15.844  -4.346  1.00  0.00     0.011 A
ATOM     12  C   UNL     1      29.436  14.511  -4.230  1.00  0.00     0.012 A
ATOM     13  C   UNL     1      30.758  14.213  -3.877  1.00  0.00     0.011 A
ATOM     14  H   UNL     1      33.550  15.099  -2.596  1.00  0.00     0.167 HD
ENDROOT
BRANCH   1  15
ATOM     15  C   UNL     1      34.910  12.567  -2.290  1.00  0.00     0.252 C
ATOM     16  N   UNL     1      35.509  11.582  -1.560  1.00  0.00    -0.365 N
ATOM     17  O   UNL     1      35.403  13.690  -2.346  1.00  0.00    -0.269 OA
ATOM     18  H   UNL     1      35.149  10.651  -1.417  1.00  0.00     0.159 HD
ATOM     19  H   UNL     1      36.369  11.826  -1.082  1.00  0.00     0.159 HD
ENDBRANCH   1  15
BRANCH   4  20
ATOM     20  N   UNL     1      30.301  11.513  -5.440  1.00  0.00    -0.358 N
ATOM     21  H   UNL     1      29.859  12.397  -5.683  1.00  0.00     0.162 HD
BRANCH  20  22
ATOM     22  C   UNL     1      29.306  10.501  -4.969  1.00  0.00     0.189 C
BRANCH  22  23
ATOM     23  C   UNL     1      29.660   9.128  -5.541  1.00  0.00     0.025 C
ATOM     24  C   UNL     1      28.522   8.142  -5.719  1.00  0.00     0.011 C
ATOM     25  C   UNL     1      29.600   7.840  -4.716  1.00  0.00     0.009 C
ATOM     26  G   UNL     1      30.478   6.643  -4.984  1.00  0.00     0.000 C
ENDBRANCH  22  23
BRANCH  22  27
ATOM     27  C   UNL     1      27.845  10.903  -5.349  1.00  0.00     0.408 C
ATOM     28  F   UNL     1      26.942  10.197  -4.625  1.00  0.00    -0.169 F
ATOM     29  F   UNL     1      27.605  12.218  -5.127  1.00  0.00    -0.169 F
ATOM     30  F   UNL     1      27.578  10.678  -6.656  1.00  0.00    -0.169 F
ENDBRANCH  22  27
ENDBRANCH  20  22
ENDBRANCH   4  20
BRANCH  10  31
ATOM     31  C   UNL     1      29.685  18.159  -4.838  1.00  0.00     0.093 A
ATOM     32  C   UNL     1      30.252  18.424  -6.079  1.00  0.00     0.035 A
ATOM     33  N   UNL     1      28.509  18.725  -4.490  1.00  0.00    -0.148 NA
ATOM     34  C   UNL     1      29.462  19.044  -7.041  1.00  0.00     0.051 A
ATOM     35  N   UNL     1      27.751  19.355  -5.437  1.00  0.00    -0.132 NA
ATOM     36  C   UNL     1      28.162  19.403  -6.720  1.00  0.00     0.151 A
BRANCH  36  37
ATOM     37  N   UNL     1      27.227  19.651  -7.717  1.00  0.00    -0.349 N
ATOM     38  C   UNL     1      26.290  20.749  -7.458  1.00  0.00     0.134 C
ATOM     39  C   UNL     1      26.845  18.511  -8.602  1.00  0.00     0.112 C
ATOM     40  C   UNL     1      24.891  20.237  -7.223  1.00  0.00     0.158 C
ATOM     41  C   UNL     1      25.763  18.961  -9.578  1.00  0.00     0.163 C
ATOM     42  S   UNL     1      24.296  19.491  -8.722  1.00  0.00     0.154 S
ATOM     43  O   UNL     1      23.535  18.309  -8.361  1.00  0.00    -0.229 OA
ATOM     44  O   UNL     1      23.686  20.537  -9.523  1.00  0.00    -0.229 OA
BRANCH  39  45
ATOM     45  C   UNL     1      26.398  17.203  -7.838  1.00  0.00     0.107 C
BRANCH  45  46
ATOM     46  N   UNL     1      25.799  16.178  -8.717  1.00  0.00    -0.314 NA
ATOM     47  H   UNL     1      26.337  16.131  -9.580  1.00  0.00     0.122 HD
BRANCH  46  48
ATOM     48  C   UNL     1      25.839  14.840  -8.106  1.00  0.00     0.085 C
ATOM     49  G   UNL     1      27.075  14.773  -7.244  1.00  0.00     0.000 C
ENDBRANCH  46  48
ENDBRANCH  45  46
ENDBRANCH  39  45
ENDBRANCH  36  37
ENDBRANCH  10  31
TORSDOF 2
ENDMDL
MODEL 8
REMARK VINA RESULT:      -8.0      1.146      1.904
REMARK SMILES NC(=O)c1cnc2c3c1[nH]c1cc(ccc13)-c1ccc(nn1)N1CCS(=O)(=O)C[C@@H]1CNC[C@@H]1C[C@H]1[C@H](C(F)(F)F)N2
REMARK SMILES IDX 4 1 5 2 6 3 7 4 8 5 9 6 10 7 11 8 12 9 13 10 14 11 15 12
REMARK SMILES IDX 16 13 2 15 1 16 3 17 42 20 37 22 36 23 35 24 34 25 38 27
REMARK SMILES IDX 39 28 40 29 41 30 17 31 18 32 22 33 19 34 21 35 20 36 23 37
REMARK SMILES IDX 24 38 30 39 25 40 29 41 26 42 27 43 28 44 31 45 32 46 33 48
REMARK H PARENT 10 14 1 18 1 19 42 21 32 47
REMARK Flexibility Score:   57.900
ROOT
ATOM      1  C   UNL     1      31.073   9.019  -3.714  1.00  0.00     0.082 A
ATOM      2  C   UNL     1      30.839   7.869  -4.462  1.00  0.00     0.129 A
ATOM      3  N   UNL     1      30.002   7.776  -5.533  1.00  0.00    -0.238 NA
ATOM      4  C   UNL     1      29.304   8.867  -5.922  1.00  0.00     0.136 A
ATOM      5  C   UNL     1      29.379  10.038  -5.142  1.00  0.00     0.051 A
ATOM      6  C   UNL     1      30.311  10.121  -4.111  1.00  0.00     0.065 A
ATOM      7  N   UNL     1      30.313  11.434  -3.678  1.00  0.00    -0.354 N
ATOM      8  C   UNL     1      29.408  12.183  -4.394  1.00  0.00     0.047 A
ATOM      9  C   UNL     1      29.182  13.569  -4.452  1.00  0.00     0.037 A
ATOM     10  C   UNL     1      28.178  14.024  -5.330  1.00  0.00     0.004 A
ATOM     11  C   UNL     1      27.316  13.090  -5.936  1.00  0.00     0.011 A
ATOM     12  C   UNL     1      27.575  11.728  -5.895  1.00  0.00     0.012 A
ATOM     13  C   UNL     1      28.698  11.284  -5.185  1.00  0.00     0.011 A
ATOM     14  H   UNL     1      30.953  11.784  -2.975  1.00  0.00     0.167 HD
ENDROOT
BRANCH   1  15
ATOM     15  C   UNL     1      32.043   9.132  -2.606  1.00  0.00     0.252 C
ATOM     16  N   UNL     1      31.692   8.668  -1.372  1.00  0.00    -0.365 N
ATOM     17  O   UNL     1      33.142   9.647  -2.791  1.00  0.00    -0.269 OA
ATOM     18  H   UNL     1      30.796   8.280  -1.119  1.00  0.00     0.159 HD
ATOM     19  H   UNL     1      32.380   8.767  -0.634  1.00  0.00     0.159 HD
ENDBRANCH   1  15
BRANCH   4  20
ATOM     20  N   UNL     1      28.672   8.834  -7.171  1.00  0.00    -0.358 N
ATOM     21  H   UNL     1      28.446   9.785  -7.456  1.00  0.00     0.162 HD
BRANCH  20  22
ATOM     22  C   UNL     1      27.464   7.954  -7.148  1.00  0.00     0.189 C
BRANCH  22  23
ATOM     23  C   UNL     1      27.139   7.567  -5.705  1.00  0.00     0.025 C
ATOM     24  C   UNL     1      26.752   6.123  -5.449  1.00  0.00     0.011 C
ATOM     25  C   UNL     1      25.728   7.202  -5.235  1.00  0.00     0.009 C
ATOM     26  G   UNL     1      25.242   7.424  -3.824  1.00  0.00     0.000 C
ENDBRANCH  22  23
BRANCH  22  27
ATOM     27  C   UNL     1      27.655   6.684  -8.036  1.00  0.00     0.408 C
ATOM     28  F   UNL     1      28.166   7.011  -9.249  1.00  0.00    -0.169 F
ATOM     29  F   UNL     1      28.498   5.788  -7.469  1.00  0.00    -0.169 F
ATOM     30  F   UNL     1      26.489   6.033  -8.253  1.00  0.00    -0.169 F
ENDBRANCH  22  27
ENDBRANCH  20  22
ENDBRANCH   4  20
BRANCH  10  31
ATOM     31  C   UNL     1      28.146  15.390  -5.881  1.00  0.00     0.093 A
ATOM     32  C   UNL     1      27.326  16.338  -5.279  1.00  0.00     0.035 A
ATOM     33  N   UNL     1      29.254  15.774  -6.552  1.00  0.00    -0.148 NA
ATOM     34  C   UNL     1      27.812  17.634  -5.146  1.00  0.00     0.051 A
ATOM     35  N   UNL     1      29.710  17.057  -6.435  1.00  0.00    -0.132 NA
ATOM     36  C   UNL     1      29.069  17.940  -5.643  1.00  0.00     0.151 A
BRANCH  36  37
ATOM     37  N   UNL     1      29.750  19.068  -5.203  1.00  0.00    -0.349 N
ATOM     38  C   UNL     1      29.935  20.132  -6.196  1.00  0.00     0.134 C
ATOM     39  C   UNL     1      30.716  18.895  -4.078  1.00  0.00     0.112 C
ATOM     40  C   UNL     1      31.380  20.258  -6.608  1.00  0.00     0.158 C
ATOM     41  C   UNL     1      31.412  20.222  -3.792  1.00  0.00     0.163 C
ATOM     42  S   UNL     1      32.330  20.792  -5.204  1.00  0.00     0.154 S
ATOM     43  O   UNL     1      33.599  20.086  -5.229  1.00  0.00    -0.229 OA
ATOM     44  O   UNL     1      32.301  22.243  -5.177  1.00  0.00    -0.229 OA
BRANCH  39  45
ATOM     45  C   UNL     1      31.777  17.743  -4.289  1.00  0.00     0.107 C
BRANCH  45  46
ATOM     46  N   UNL     1      31.317  16.420  -3.825  1.00  0.00    -0.314 NA
ATOM     47  H   UNL     1      30.423  16.210  -4.266  1.00  0.00     0.122 HD
BRANCH  46  48
ATOM     48  C   UNL     1      32.251  15.349  -4.206  1.00  0.00     0.085 C
ATOM     49  G   UNL     1      33.132  15.071  -3.013  1.00  0.00     0.000 C
ENDBRANCH  46  48
ENDBRANCH  45  46
ENDBRANCH  39  45
ENDBRANCH  36  37
ENDBRANCH  10  31
TORSDOF 2
ENDMDL
MODEL 9
REMARK VINA RESULT:      -8.0      5.275      9.959
REMARK SMILES NC(=O)c1cnc2c3c1[nH]c1cc(ccc13)-c1ccc(nn1)N1CCS(=O)(=O)C[C@@H]1CNC[C@@H]1C[C@H]1[C@H](C(F)(F)F)N2
REMARK SMILES IDX 4 1 5 2 6 3 7 4 8 5 9 6 10 7 11 8 12 9 13 10 14 11 15 12
REMARK SMILES IDX 16 13 2 15 1 16 3 17 42 20 37 22 36 23 35 24 34 25 38 27
REMARK SMILES IDX 39 28 40 29 41 30 17 31 18 32 22 33 19 34 21 35 20 36 23 37
REMARK SMILES IDX 24 38 30 39 25 40 29 41 26 42 27 43 28 44 31 45 32 46 33 48
REMARK H PARENT 10 14 1 18 1 19 42 21 32 47
REMARK Flexibility Score:   57.900
ROOT
ATOM      1  C   UNL     1      34.799  11.298  -1.815  1.00  0.00     0.082 A
ATOM      2  C   UNL     1      35.030  12.666  -1.914  1.00  0.00     0.129 A
ATOM      3  N   UNL     1      34.295  13.544  -2.651  1.00  0.00    -0.238 NA
ATOM      4  C   UNL     1      33.253  13.084  -3.380  1.00  0.00     0.136 A
ATOM      5  C   UNL     1      33.027  11.694  -3.444  1.00  0.00     0.051 A
ATOM      6  C   UNL     1      33.741  10.841  -2.608  1.00  0.00     0.065 A
ATOM      7  N   UNL     1      33.163   9.591  -2.723  1.00  0.00    -0.354 N
ATOM      8  C   UNL     1      32.112   9.621  -3.610  1.00  0.00     0.047 A
ATOM      9  C   UNL     1      31.120   8.674  -3.916  1.00  0.00     0.037 A
ATOM     10  C   UNL     1      30.149   9.039  -4.869  1.00  0.00     0.004 A
ATOM     11  C   UNL     1      30.326  10.218  -5.617  1.00  0.00     0.011 A
ATOM     12  C   UNL     1      31.290  11.157  -5.280  1.00  0.00     0.012 A
ATOM     13  C   UNL     1      32.133  10.885  -4.194  1.00  0.00     0.011 A
ATOM     14  H   UNL     1      33.451   8.794  -2.167  1.00  0.00     0.167 HD
ENDROOT
BRANCH   1  15
ATOM     15  C   UNL     1      35.549  10.366  -0.950  1.00  0.00     0.252 C
ATOM     16  N   UNL     1      36.779  10.738  -0.490  1.00  0.00    -0.365 N
ATOM     17  O   UNL     1      35.080   9.269  -0.660  1.00  0.00    -0.269 OA
ATOM     18  H   UNL     1      37.261  11.594  -0.719  1.00  0.00     0.159 HD
ATOM     19  H   UNL     1      37.268  10.073   0.097  1.00  0.00     0.159 HD
ENDBRANCH   1  15
BRANCH   4  20
ATOM     20  N   UNL     1      32.350  14.017  -3.903  1.00  0.00    -0.358 N
ATOM     21  H   UNL     1      32.835  14.899  -4.060  1.00  0.00     0.162 HD
BRANCH  20  22
ATOM     22  C   UNL     1      31.160  14.183  -3.013  1.00  0.00     0.189 C
BRANCH  22  23
ATOM     23  C   UNL     1      29.921  14.470  -3.862  1.00  0.00     0.025 C
ATOM     24  C   UNL     1      30.082  14.382  -5.367  1.00  0.00     0.011 C
ATOM     25  C   UNL     1      29.782  15.715  -4.742  1.00  0.00     0.009 C
ATOM     26  G   UNL     1      28.455  16.351  -5.073  1.00  0.00     0.000 C
ENDBRANCH  22  23
BRANCH  22  27
ATOM     27  C   UNL     1      31.382  15.309  -1.953  1.00  0.00     0.408 C
ATOM     28  F   UNL     1      31.544  14.784  -0.713  1.00  0.00    -0.169 F
ATOM     29  F   UNL     1      32.479  16.055  -2.224  1.00  0.00    -0.169 F
ATOM     30  F   UNL     1      30.337  16.166  -1.894  1.00  0.00    -0.169 F
ENDBRANCH  22  27
ENDBRANCH  20  22
ENDBRANCH   4  20
BRANCH  10  31
ATOM     31  C   UNL     1      28.814   8.419  -4.939  1.00  0.00     0.093 A
ATOM     32  C   UNL     1      27.717   9.219  -5.239  1.00  0.00     0.035 A
ATOM     33  N   UNL     1      28.799   7.101  -5.233  1.00  0.00    -0.148 NA
ATOM     34  C   UNL     1      26.741   8.702  -6.084  1.00  0.00     0.051 A
ATOM     35  N   UNL     1      27.820   6.596  -6.044  1.00  0.00    -0.132 NA
ATOM     36  C   UNL     1      26.879   7.409  -6.565  1.00  0.00     0.151 A
BRANCH  36  37
ATOM     37  N   UNL     1      26.175   6.990  -7.687  1.00  0.00    -0.349 N
ATOM     38  C   UNL     1      25.710   5.599  -7.670  1.00  0.00     0.134 C
ATOM     39  C   UNL     1      26.458   7.687  -8.977  1.00  0.00     0.112 C
ATOM     40  C   UNL     1      26.460   4.754  -8.668  1.00  0.00     0.158 C
ATOM     41  C   UNL     1      25.647   7.041 -10.095  1.00  0.00     0.163 C
ATOM     42  S   UNL     1      26.078   5.328 -10.305  1.00  0.00     0.154 S
ATOM     43  O   UNL     1      27.294   5.265 -11.095  1.00  0.00    -0.229 OA
ATOM     44  O   UNL     1      24.881   4.636 -10.748  1.00  0.00    -0.229 OA
BRANCH  39  45
ATOM     45  C   UNL     1      27.987   7.760  -9.367  1.00  0.00     0.107 C
BRANCH  45  46
ATOM     46  N   UNL     1      28.448   9.120  -9.709  1.00  0.00    -0.314 NA
ATOM     47  H   UNL     1      29.455   9.172  -9.562  1.00  0.00     0.122 HD
BRANCH  46  48
ATOM     48  C   UNL     1      28.198   9.447 -11.121  1.00  0.00     0.085 C
ATOM     49  G   UNL     1      28.633  10.874 -11.340  1.00  0.00     0.000 C
ENDBRANCH  46  48
ENDBRANCH  45  46
ENDBRANCH  39  45
ENDBRANCH  36  37
ENDBRANCH  10  31
TORSDOF 2
ENDMDL
