MODEL 1
REMARK VINA RESULT:      -8.6      0.000      0.000
REMARK SMILES NC(=O)c1cnc2c3c1[nH]c1cc(ccc13)-c1ccc(nn1)N1CCS(=O)(=O)C[C@H]1COC[C@H]1C[C@H]1[C@H](C(F)(F)F)N2
REMARK SMILES IDX 4 1 5 2 6 3 7 4 8 5 9 6 10 7 11 8 12 9 13 10 14 11 15 12
REMARK SMILES IDX 16 13 2 15 1 16 3 17 42 20 37 22 36 23 35 24 34 25 38 27
REMARK SMILES IDX 39 28 40 29 41 30 17 31 18 32 22 33 19 34 21 35 20 36 23 37
REMARK SMILES IDX 24 38 30 39 25 40 29 41 26 42 27 43 28 44 31 45 32 46 33 47
REMARK H PARENT 10 14 1 18 1 19 42 21
REMARK Flexibility Score:   57.900
ROOT
ATOM      1  C   UNL     1      32.038   9.827  -3.486  1.00  0.00     0.082 A
ATOM      2  C   UNL     1      31.741   8.603  -4.078  1.00  0.00     0.129 A
ATOM      3  N   UNL     1      30.692   8.359  -4.914  1.00  0.00    -0.238 NA
ATOM      4  C   UNL     1      29.831   9.362  -5.198  1.00  0.00     0.136 A
ATOM      5  C   UNL     1      29.951  10.578  -4.497  1.00  0.00     0.051 A
ATOM      6  C   UNL     1      31.095  10.826  -3.747  1.00  0.00     0.065 A
ATOM      7  N   UNL     1      31.080  12.172  -3.433  1.00  0.00    -0.354 N
ATOM      8  C   UNL     1      29.969  12.778  -3.975  1.00  0.00     0.047 A
ATOM      9  C   UNL     1      29.640  14.128  -4.177  1.00  0.00     0.037 A
ATOM     10  C   UNL     1      28.430  14.393  -4.852  1.00  0.00     0.004 A
ATOM     11  C   UNL     1      27.479  13.362  -4.991  1.00  0.00     0.011 A
ATOM     12  C   UNL     1      27.837  12.031  -4.823  1.00  0.00     0.012 A
ATOM     13  C   UNL     1      29.150  11.748  -4.427  1.00  0.00     0.011 A
ATOM     14  H   UNL     1      31.848  12.641  -2.963  1.00  0.00     0.167 HD
ENDROOT
BRANCH   1  15
ATOM     15  C   UNL     1      33.235  10.115  -2.671  1.00  0.00     0.252 C
ATOM     16  N   UNL     1      33.642   9.197  -1.745  1.00  0.00    -0.365 N
ATOM     17  O   UNL     1      33.850  11.168  -2.816  1.00  0.00    -0.269 OA
ATOM     18  H   UNL     1      33.179   8.326  -1.534  1.00  0.00     0.159 HD
ATOM     19  H   UNL     1      34.465   9.429  -1.203  1.00  0.00     0.159 HD
ENDBRANCH   1  15
BRANCH   4  20
ATOM     20  N   UNL     1      28.991   9.197  -6.305  1.00  0.00    -0.358 N
ATOM     21  H   UNL     1      28.344   9.983  -6.338  1.00  0.00     0.162 HD
BRANCH  20  22
ATOM     22  C   UNL     1      28.281   7.871  -6.311  1.00  0.00     0.189 C
BRANCH  22  23
ATOM     23  C   UNL     1      28.476   7.247  -7.693  1.00  0.00     0.026 C
ATOM     24  C   UNL     1      27.535   6.166  -8.186  1.00  0.00     0.012 C
ATOM     25  C   UNL     1      28.985   5.819  -7.990  1.00  0.00     0.021 C
ATOM     26  G   UNL     1      29.380   4.791  -6.967  1.00  0.00     0.000 C
ENDBRANCH  22  23
BRANCH  22  27
ATOM     27  C   UNL     1      26.759   8.027  -5.963  1.00  0.00     0.408 C
ATOM     28  F   UNL     1      26.582   8.842  -4.894  1.00  0.00    -0.169 F
ATOM     29  F   UNL     1      26.048   8.555  -6.989  1.00  0.00    -0.169 F
ATOM     30  F   UNL     1      26.175   6.839  -5.678  1.00  0.00    -0.169 F
ENDBRANCH  22  27
ENDBRANCH  20  22
ENDBRANCH   4  20
BRANCH  10  31
ATOM     31  C   UNL     1      28.252  15.567  -5.739  1.00  0.00     0.093 A
ATOM     32  C   UNL     1      27.740  16.746  -5.202  1.00  0.00     0.035 A
ATOM     33  N   UNL     1      29.069  15.609  -6.815  1.00  0.00    -0.148 NA
ATOM     34  C   UNL     1      28.299  17.954  -5.608  1.00  0.00     0.051 A
ATOM     35  N   UNL     1      29.614  16.798  -7.206  1.00  0.00    -0.132 NA
ATOM     36  C   UNL     1      29.320  17.934  -6.540  1.00  0.00     0.151 A
BRANCH  36  37
ATOM     37  N   UNL     1      30.150  19.061  -6.682  1.00  0.00    -0.348 N
ATOM     38  C   UNL     1      31.548  18.756  -6.345  1.00  0.00     0.135 C
ATOM     39  C   UNL     1      29.514  20.295  -6.119  1.00  0.00     0.124 C
ATOM     40  C   UNL     1      31.853  19.016  -4.886  1.00  0.00     0.158 C
ATOM     41  C   UNL     1      30.584  21.339  -5.820  1.00  0.00     0.164 C
ATOM     42  S   UNL     1      31.682  20.753  -4.558  1.00  0.00     0.154 S
ATOM     43  O   UNL     1      31.012  20.916  -3.282  1.00  0.00    -0.229 OA
ATOM     44  O   UNL     1      32.972  21.377  -4.795  1.00  0.00    -0.229 OA
BRANCH  39  45
ATOM     45  C   UNL     1      28.505  20.957  -7.108  1.00  0.00     0.186 C
BRANCH  45  46
ATOM     46  O   UNL     1      27.300  21.490  -6.554  1.00  0.00    -0.379 OA
BRANCH  46  47
ATOM     47  C   UNL     1      26.079  20.857  -6.947  1.00  0.00     0.164 C
ATOM     48  G   UNL     1      24.871  21.723  -6.720  1.00  0.00     0.000 C
ENDBRANCH  46  47
ENDBRANCH  45  46
ENDBRANCH  39  45
ENDBRANCH  36  37
ENDBRANCH  10  31
TORSDOF 2
ENDMDL
MODEL 2
REMARK VINA RESULT:      -8.5      4.271      6.935
REMARK SMILES NC(=O)c1cnc2c3c1[nH]c1cc(ccc13)-c1ccc(nn1)N1CCS(=O)(=O)C[C@H]1COC[C@H]1C[C@H]1[C@H](C(F)(F)F)N2
REMARK SMILES IDX 4 1 5 2 6 3 7 4 8 5 9 6 10 7 11 8 12 9 13 10 14 11 15 12
REMARK SMILES IDX 16 13 2 15 1 16 3 17 42 20 37 22 36 23 35 24 34 25 38 27
REMARK SMILES IDX 39 28 40 29 41 30 17 31 18 32 22 33 19 34 21 35 20 36 23 37
REMARK SMILES IDX 24 38 30 39 25 40 29 41 26 42 27 43 28 44 31 45 32 46 33 47
REMARK H PARENT 10 14 1 18 1 19 42 21
REMARK Flexibility Score:   57.900
ROOT
ATOM      1  C   UNL     1      34.615  11.107  -2.099  1.00  0.00     0.082 A
ATOM      2  C   UNL     1      35.450  12.172  -1.774  1.00  0.00     0.129 A
ATOM      3  N   UNL     1      35.263  13.470  -2.146  1.00  0.00    -0.238 NA
ATOM      4  C   UNL     1      34.201  13.785  -2.920  1.00  0.00     0.136 A
ATOM      5  C   UNL     1      33.413  12.743  -3.449  1.00  0.00     0.051 A
ATOM      6  C   UNL     1      33.563  11.453  -2.952  1.00  0.00     0.065 A
ATOM      7  N   UNL     1      32.484  10.722  -3.416  1.00  0.00    -0.354 N
ATOM      8  C   UNL     1      31.657  11.518  -4.176  1.00  0.00     0.047 A
ATOM      9  C   UNL     1      30.340  11.342  -4.628  1.00  0.00     0.037 A
ATOM     10  C   UNL     1      29.758  12.419  -5.328  1.00  0.00     0.004 A
ATOM     11  C   UNL     1      30.587  13.449  -5.819  1.00  0.00     0.011 A
ATOM     12  C   UNL     1      31.873  13.627  -5.328  1.00  0.00     0.012 A
ATOM     13  C   UNL     1      32.355  12.702  -4.394  1.00  0.00     0.011 A
ATOM     14  H   UNL     1      32.297   9.766  -3.130  1.00  0.00     0.167 HD
ENDROOT
BRANCH   1  15
ATOM     15  C   UNL     1      34.759   9.724  -1.603  1.00  0.00     0.252 C
ATOM     16  N   UNL     1      35.457   9.504  -0.450  1.00  0.00    -0.365 N
ATOM     17  O   UNL     1      34.266   8.784  -2.221  1.00  0.00    -0.269 OA
ATOM     18  H   UNL     1      35.924  10.207   0.101  1.00  0.00     0.159 HD
ATOM     19  H   UNL     1      35.536   8.543  -0.141  1.00  0.00     0.159 HD
ENDBRANCH   1  15
BRANCH   4  20
ATOM     20  N   UNL     1      33.836  15.134  -2.996  1.00  0.00    -0.358 N
ATOM     21  H   UNL     1      34.150  15.600  -2.146  1.00  0.00     0.162 HD
BRANCH  20  22
ATOM     22  C   UNL     1      32.367  15.331  -3.248  1.00  0.00     0.189 C
BRANCH  22  23
ATOM     23  C   UNL     1      32.167  16.771  -3.723  1.00  0.00     0.026 C
ATOM     24  C   UNL     1      30.995  17.129  -4.614  1.00  0.00     0.012 C
ATOM     25  C   UNL     1      32.387  17.302  -5.157  1.00  0.00     0.021 C
ATOM     26  G   UNL     1      32.837  16.490  -6.340  1.00  0.00     0.000 C
ENDBRANCH  22  23
BRANCH  22  27
ATOM     27  C   UNL     1      31.513  15.029  -1.966  1.00  0.00     0.408 C
ATOM     28  F   UNL     1      31.118  16.176  -1.360  1.00  0.00    -0.169 F
ATOM     29  F   UNL     1      30.394  14.320  -2.248  1.00  0.00    -0.169 F
ATOM     30  F   UNL     1      32.198  14.297  -1.057  1.00  0.00    -0.169 F
ENDBRANCH  22  27
ENDBRANCH  20  22
ENDBRANCH   4  20
BRANCH  10  31
ATOM     31  C   UNL     1      28.310  12.727  -5.259  1.00  0.00     0.093 A
ATOM     32  C   UNL     1      27.902  13.919  -4.666  1.00  0.00     0.035 A
ATOM     33  N   UNL     1      27.549  12.148  -6.214  1.00  0.00    -0.148 NA
ATOM     34  C   UNL     1      26.866  14.633  -5.261  1.00  0.00     0.051 A
ATOM     35  N   UNL     1      26.535  12.855  -6.794  1.00  0.00    -0.132 NA
ATOM     36  C   UNL     1      26.273  14.118  -6.400  1.00  0.00     0.151 A
BRANCH  36  37
ATOM     37  N   UNL     1      25.515  14.965  -7.229  1.00  0.00    -0.348 N
ATOM     38  C   UNL     1      24.574  14.209  -8.069  1.00  0.00     0.135 C
ATOM     39  C   UNL     1      26.360  16.032  -7.855  1.00  0.00     0.124 C
ATOM     40  C   UNL     1      25.175  13.837  -9.407  1.00  0.00     0.158 C
ATOM     41  C   UNL     1      25.664  16.584  -9.094  1.00  0.00     0.164 C
ATOM     42  S   UNL     1      25.505  15.320 -10.326  1.00  0.00     0.154 S
ATOM     43  O   UNL     1      26.793  15.179 -10.979  1.00  0.00    -0.229 OA
ATOM     44  O   UNL     1      24.319  15.633 -11.103  1.00  0.00    -0.229 OA
BRANCH  39  45
ATOM     45  C   UNL     1      26.605  17.242  -6.900  1.00  0.00     0.186 C
BRANCH  45  46
ATOM     46  O   UNL     1      27.962  17.615  -6.653  1.00  0.00    -0.379 OA
BRANCH  46  47
ATOM     47  C   UNL     1      28.261  19.013  -6.695  1.00  0.00     0.164 C
ATOM     48  G   UNL     1      27.031  19.873  -6.788  1.00  0.00     0.000 C
ENDBRANCH  46  47
ENDBRANCH  45  46
ENDBRANCH  39  45
ENDBRANCH  36  37
ENDBRANCH  10  31
TORSDOF 2
ENDMDL
MODEL 3
REMARK VINA RESULT:      -8.5      2.921      4.394
REMARK SMILES NC(=O)c1cnc2c3c1[nH]c1cc(ccc13)-c1ccc(nn1)N1CCS(=O)(=O)C[C@H]1COC[C@H]1C[C@H]1[C@H](C(F)(F)F)N2
REMARK SMILES IDX 4 1 5 2 6 3 7 4 8 5 9 6 10 7 11 8 12 9 13 10 14 11 15 12
REMARK SMILES IDX 16 13 2 15 1 16 3 17 42 20 37 22 36 23 35 24 34 25 38 27
REMARK SMILES IDX 39 28 40 29 41 30 17 31 18 32 22 33 19 34 21 35 20 36 23 37
REMARK SMILES IDX 24 38 30 39 25 40 29 41 26 42 27 43 28 44 31 45 32 46 33 47
REMARK H PARENT 10 14 1 18 1 19 42 21
REMARK Flexibility Score:   57.900
ROOT
ATOM      1  C   UNL     1      28.917   6.872  -6.606  1.00  0.00     0.082 A
ATOM      2  C   UNL     1      27.975   6.821  -7.628  1.00  0.00     0.129 A
ATOM      3  N   UNL     1      27.295   7.888  -8.135  1.00  0.00    -0.238 NA
ATOM      4  C   UNL     1      27.509   9.115  -7.609  1.00  0.00     0.136 A
ATOM      5  C   UNL     1      28.304   9.227  -6.451  1.00  0.00     0.051 A
ATOM      6  C   UNL     1      29.070   8.141  -6.039  1.00  0.00     0.065 A
ATOM      7  N   UNL     1      29.956   8.618  -5.091  1.00  0.00    -0.354 N
ATOM      8  C   UNL     1      29.778   9.971  -4.906  1.00  0.00     0.047 A
ATOM      9  C   UNL     1      30.574  10.947  -4.286  1.00  0.00     0.037 A
ATOM     10  C   UNL     1      30.116  12.279  -4.355  1.00  0.00     0.004 A
ATOM     11  C   UNL     1      28.779  12.529  -4.728  1.00  0.00     0.011 A
ATOM     12  C   UNL     1      28.024  11.560  -5.375  1.00  0.00     0.012 A
ATOM     13  C   UNL     1      28.599  10.299  -5.569  1.00  0.00     0.011 A
ATOM     14  H   UNL     1      30.694   8.052  -4.687  1.00  0.00     0.167 HD
ENDROOT
BRANCH   1  15
ATOM     15  C   UNL     1      29.732   5.734  -6.135  1.00  0.00     0.252 C
ATOM     16  N   UNL     1      30.197   4.831  -7.048  1.00  0.00    -0.365 N
ATOM     17  O   UNL     1      29.980   5.596  -4.941  1.00  0.00    -0.269 OA
ATOM     18  H   UNL     1      30.013   4.845  -8.039  1.00  0.00     0.159 HD
ATOM     19  H   UNL     1      30.751   4.063  -6.689  1.00  0.00     0.159 HD
ENDBRANCH   1  15
BRANCH   4  20
ATOM     20  N   UNL     1      27.083  10.220  -8.354  1.00  0.00    -0.358 N
ATOM     21  H   UNL     1      26.710  10.917  -7.711  1.00  0.00     0.162 HD
BRANCH  20  22
ATOM     22  C   UNL     1      26.102   9.857  -9.434  1.00  0.00     0.189 C
BRANCH  22  23
ATOM     23  C   UNL     1      26.738  10.218 -10.778  1.00  0.00     0.026 C
ATOM     24  C   UNL     1      28.241  10.358 -10.902  1.00  0.00     0.012 C
ATOM     25  C   UNL     1      27.386  11.569 -11.152  1.00  0.00     0.021 C
ATOM     26  G   UNL     1      27.504  12.770 -10.255  1.00  0.00     0.000 C
ENDBRANCH  22  23
BRANCH  22  27
ATOM     27  C   UNL     1      24.727  10.587  -9.238  1.00  0.00     0.408 C
ATOM     28  F   UNL     1      24.882  11.745  -8.551  1.00  0.00    -0.169 F
ATOM     29  F   UNL     1      24.136  10.897 -10.417  1.00  0.00    -0.169 F
ATOM     30  F   UNL     1      23.834   9.823  -8.565  1.00  0.00    -0.169 F
ENDBRANCH  22  27
ENDBRANCH  20  22
ENDBRANCH   4  20
BRANCH  10  31
ATOM     31  C   UNL     1      31.038  13.437  -4.423  1.00  0.00     0.093 A
ATOM     32  C   UNL     1      31.899  13.551  -5.513  1.00  0.00     0.035 A
ATOM     33  N   UNL     1      30.627  14.544  -3.765  1.00  0.00    -0.148 NA
ATOM     34  C   UNL     1      32.096  14.809  -6.072  1.00  0.00     0.051 A
ATOM     35  N   UNL     1      30.824  15.775  -4.320  1.00  0.00    -0.132 NA
ATOM     36  C   UNL     1      31.449  15.895  -5.510  1.00  0.00     0.151 A
BRANCH  36  37
ATOM     37  N   UNL     1      31.314  17.081  -6.254  1.00  0.00    -0.348 N
ATOM     38  C   UNL     1      32.559  17.863  -6.267  1.00  0.00     0.135 C
ATOM     39  C   UNL     1      30.018  17.774  -5.965  1.00  0.00     0.124 C
ATOM     40  C   UNL     1      32.615  18.865  -5.135  1.00  0.00     0.158 C
ATOM     41  C   UNL     1      30.116  19.244  -6.357  1.00  0.00     0.164 C
ATOM     42  S   UNL     1      31.329  20.068  -5.361  1.00  0.00     0.154 S
ATOM     43  O   UNL     1      30.724  20.341  -4.071  1.00  0.00    -0.229 OA
ATOM     44  O   UNL     1      31.871  21.151  -6.161  1.00  0.00    -0.229 OA
BRANCH  39  45
ATOM     45  C   UNL     1      28.822  17.174  -6.769  1.00  0.00     0.186 C
BRANCH  45  46
ATOM     46  O   UNL     1      28.143  16.057  -6.194  1.00  0.00    -0.379 OA
BRANCH  46  47
ATOM     47  C   UNL     1      26.935  16.338  -5.482  1.00  0.00     0.164 C
ATOM     48  G   UNL     1      26.311  15.111  -4.876  1.00  0.00     0.000 C
ENDBRANCH  46  47
ENDBRANCH  45  46
ENDBRANCH  39  45
ENDBRANCH  36  37
ENDBRANCH  10  31
TORSDOF 2
ENDMDL
MODEL 4
REMARK VINA RESULT:      -8.5      2.794      4.026
REMARK SMILES NC(=O)c1cnc2c3c1[nH]c1cc(ccc13)-c1ccc(nn1)N1CCS(=O)(=O)C[C@H]1COC[C@H]1C[C@H]1[C@H](C(F)(F)F)N2
REMARK SMILES IDX 4 1 5 2 6 3 7 4 8 5 9 6 10 7 11 8 12 9 13 10 14 11 15 12
REMARK SMILES IDX 16 13 2 15 1 16 3 17 42 20 37 22 36 23 35 24 34 25 38 27
REMARK SMILES IDX 39 28 40 29 41 30 17 31 18 32 22 33 19 34 21 35 20 36 23 37
REMARK SMILES IDX 24 38 30 39 25 40 29 41 26 42 27 43 28 44 31 45 32 46 33 47
REMARK H PARENT 10 14 1 18 1 19 42 21
REMARK Flexibility Score:   57.900
ROOT
ATOM      1  C   UNL     1      28.947   6.935  -5.917  1.00  0.00     0.082 A
ATOM      2  C   UNL     1      28.286   6.678  -7.114  1.00  0.00     0.129 A
ATOM      3  N   UNL     1      27.752   7.619  -7.943  1.00  0.00    -0.238 NA
ATOM      4  C   UNL     1      27.829   8.923  -7.595  1.00  0.00     0.136 A
ATOM      5  C   UNL     1      28.314   9.255  -6.314  1.00  0.00     0.051 A
ATOM      6  C   UNL     1      28.954   8.284  -5.552  1.00  0.00     0.065 A
ATOM      7  N   UNL     1      29.579   8.946  -4.510  1.00  0.00    -0.354 N
ATOM      8  C   UNL     1      29.360  10.302  -4.605  1.00  0.00     0.047 A
ATOM      9  C   UNL     1      29.979  11.398  -3.984  1.00  0.00     0.037 A
ATOM     10  C   UNL     1      29.552  12.681  -4.385  1.00  0.00     0.004 A
ATOM     11  C   UNL     1      28.348  12.811  -5.108  1.00  0.00     0.011 A
ATOM     12  C   UNL     1      27.776  11.719  -5.746  1.00  0.00     0.012 A
ATOM     13  C   UNL     1      28.382  10.468  -5.580  1.00  0.00     0.011 A
ATOM     14  H   UNL     1      30.195   8.484  -3.850  1.00  0.00     0.167 HD
ENDROOT
BRANCH   1  15
ATOM     15  C   UNL     1      29.621   5.924  -5.078  1.00  0.00     0.252 C
ATOM     16  N   UNL     1      29.223   4.620  -5.164  1.00  0.00    -0.365 N
ATOM     17  O   UNL     1      30.519   6.251  -4.307  1.00  0.00    -0.269 OA
ATOM     18  H   UNL     1      28.474   4.268  -5.740  1.00  0.00     0.159 HD
ATOM     19  H   UNL     1      29.707   3.955  -4.573  1.00  0.00     0.159 HD
ENDBRANCH   1  15
BRANCH   4  20
ATOM     20  N   UNL     1      27.599   9.873  -8.596  1.00  0.00    -0.358 N
ATOM     21  H   UNL     1      28.246  10.648  -8.458  1.00  0.00     0.162 HD
BRANCH  20  22
ATOM     22  C   UNL     1      26.167  10.326  -8.658  1.00  0.00     0.189 C
BRANCH  22  23
ATOM     23  C   UNL     1      25.411   9.352  -9.562  1.00  0.00     0.026 C
ATOM     24  C   UNL     1      23.913   9.480  -9.745  1.00  0.00     0.012 C
ATOM     25  C   UNL     1      24.451   8.232  -9.103  1.00  0.00     0.021 C
ATOM     26  G   UNL     1      24.092   7.904  -7.680  1.00  0.00     0.000 C
ENDBRANCH  22  23
BRANCH  22  27
ATOM     27  C   UNL     1      26.048  11.801  -9.181  1.00  0.00     0.408 C
ATOM     28  F   UNL     1      24.979  12.429  -8.631  1.00  0.00    -0.169 F
ATOM     29  F   UNL     1      27.142  12.542  -8.886  1.00  0.00    -0.169 F
ATOM     30  F   UNL     1      25.912  11.857 -10.526  1.00  0.00    -0.169 F
ENDBRANCH  22  27
ENDBRANCH  20  22
ENDBRANCH   4  20
BRANCH  10  31
ATOM     31  C   UNL     1      30.461  13.850  -4.420  1.00  0.00     0.093 A
ATOM     32  C   UNL     1      31.336  13.992  -5.495  1.00  0.00     0.035 A
ATOM     33  N   UNL     1      30.029  14.941  -3.749  1.00  0.00    -0.148 NA
ATOM     34  C   UNL     1      31.527  15.262  -6.030  1.00  0.00     0.051 A
ATOM     35  N   UNL     1      30.220  16.184  -4.280  1.00  0.00    -0.132 NA
ATOM     36  C   UNL     1      30.860  16.330  -5.459  1.00  0.00     0.151 A
BRANCH  36  37
ATOM     37  N   UNL     1      30.722  17.528  -6.184  1.00  0.00    -0.348 N
ATOM     38  C   UNL     1      32.010  18.217  -6.351  1.00  0.00     0.135 C
ATOM     39  C   UNL     1      29.524  18.311  -5.742  1.00  0.00     0.124 C
ATOM     40  C   UNL     1      32.276  19.206  -5.237  1.00  0.00     0.158 C
ATOM     41  C   UNL     1      29.681  19.772  -6.148  1.00  0.00     0.164 C
ATOM     42  S   UNL     1      31.062  20.501  -5.308  1.00  0.00     0.154 S
ATOM     43  O   UNL     1      30.639  20.809  -3.955  1.00  0.00    -0.229 OA
ATOM     44  O   UNL     1      31.579  21.546  -6.172  1.00  0.00    -0.229 OA
BRANCH  39  45
ATOM     45  C   UNL     1      28.199  17.804  -6.393  1.00  0.00     0.186 C
BRANCH  45  46
ATOM     46  O   UNL     1      28.252  16.565  -7.102  1.00  0.00    -0.379 OA
BRANCH  46  47
ATOM     47  C   UNL     1      27.392  16.439  -8.238  1.00  0.00     0.164 C
ATOM     48  G   UNL     1      26.260  15.476  -8.014  1.00  0.00     0.000 C
ENDBRANCH  46  47
ENDBRANCH  45  46
ENDBRANCH  39  45
ENDBRANCH  36  37
ENDBRANCH  10  31
TORSDOF 2
ENDMDL
MODEL 5
REMARK VINA RESULT:      -8.4      0.969      1.341
REMARK SMILES NC(=O)c1cnc2c3c1[nH]c1cc(ccc13)-c1ccc(nn1)N1CCS(=O)(=O)C[C@H]1COC[C@H]1C[C@H]1[C@H](C(F)(F)F)N2
REMARK SMILES IDX 4 1 5 2 6 3 7 4 8 5 9 6 10 7 11 8 12 9 13 10 14 11 15 12
REMARK SMILES IDX 16 13 2 15 1 16 3 17 42 20 37 22 36 23 35 24 34 25 38 27
REMARK SMILES IDX 39 28 40 29 41 30 17 31 18 32 22 33 19 34 21 35 20 36 23 37
REMARK SMILES IDX 24 38 30 39 25 40 29 41 26 42 27 43 28 44 31 45 32 46 33 47
REMARK H PARENT 10 14 1 18 1 19 42 21
REMARK Flexibility Score:   57.900
ROOT
ATOM      1  C   UNL     1      31.552   9.528  -3.659  1.00  0.00     0.082 A
ATOM      2  C   UNL     1      31.316   8.341  -4.347  1.00  0.00     0.129 A
ATOM      3  N   UNL     1      30.345   8.147  -5.284  1.00  0.00    -0.238 NA
ATOM      4  C   UNL     1      29.505   9.163  -5.581  1.00  0.00     0.136 A
ATOM      5  C   UNL     1      29.555  10.335  -4.800  1.00  0.00     0.051 A
ATOM      6  C   UNL     1      30.628  10.539  -3.940  1.00  0.00     0.065 A
ATOM      7  N   UNL     1      30.577  11.864  -3.548  1.00  0.00    -0.354 N
ATOM      8  C   UNL     1      29.512  12.499  -4.146  1.00  0.00     0.047 A
ATOM      9  C   UNL     1      29.192  13.858  -4.295  1.00  0.00     0.037 A
ATOM     10  C   UNL     1      28.043  14.162  -5.054  1.00  0.00     0.004 A
ATOM     11  C   UNL     1      27.115  13.138  -5.337  1.00  0.00     0.011 A
ATOM     12  C   UNL     1      27.467  11.801  -5.220  1.00  0.00     0.012 A
ATOM     13  C   UNL     1      28.742  11.497  -4.730  1.00  0.00     0.011 A
ATOM     14  H   UNL     1      31.298  12.305  -2.986  1.00  0.00     0.167 HD
ENDROOT
BRANCH   1  15
ATOM     15  C   UNL     1      32.672   9.768  -2.727  1.00  0.00     0.252 C
ATOM     16  N   UNL     1      33.050   8.770  -1.876  1.00  0.00    -0.365 N
ATOM     17  O   UNL     1      33.249  10.852  -2.711  1.00  0.00    -0.269 OA
ATOM     18  H   UNL     1      32.613   7.865  -1.795  1.00  0.00     0.159 HD
ATOM     19  H   UNL     1      33.821   8.971  -1.250  1.00  0.00     0.159 HD
ENDBRANCH   1  15
BRANCH   4  20
ATOM     20  N   UNL     1      28.765   9.064  -6.764  1.00  0.00    -0.358 N
ATOM     21  H   UNL     1      27.978   9.709  -6.707  1.00  0.00     0.162 HD
BRANCH  20  22
ATOM     22  C   UNL     1      28.329   7.657  -7.068  1.00  0.00     0.189 C
BRANCH  22  23
ATOM     23  C   UNL     1      28.105   7.557  -8.578  1.00  0.00     0.026 C
ATOM     24  C   UNL     1      28.638   8.630  -9.505  1.00  0.00     0.012 C
ATOM     25  C   UNL     1      27.150   8.430  -9.423  1.00  0.00     0.021 C
ATOM     26  G   UNL     1      26.272   9.534  -8.904  1.00  0.00     0.000 C
ENDBRANCH  22  23
BRANCH  22  27
ATOM     27  C   UNL     1      27.035   7.266  -6.271  1.00  0.00     0.408 C
ATOM     28  F   UNL     1      26.385   8.368  -5.823  1.00  0.00    -0.169 F
ATOM     29  F   UNL     1      26.158   6.564  -7.027  1.00  0.00    -0.169 F
ATOM     30  F   UNL     1      27.311   6.485  -5.200  1.00  0.00    -0.169 F
ENDBRANCH  22  27
ENDBRANCH  20  22
ENDBRANCH   4  20
BRANCH  10  31
ATOM     31  C   UNL     1      27.933  15.386  -5.881  1.00  0.00     0.093 A
ATOM     32  C   UNL     1      27.505  16.569  -5.282  1.00  0.00     0.035 A
ATOM     33  N   UNL     1      28.742  15.429  -6.964  1.00  0.00    -0.148 NA
ATOM     34  C   UNL     1      28.137  17.756  -5.635  1.00  0.00     0.051 A
ATOM     35  N   UNL     1      29.359  16.598  -7.303  1.00  0.00    -0.132 NA
ATOM     36  C   UNL     1      29.146  17.717  -6.580  1.00  0.00     0.151 A
BRANCH  36  37
ATOM     37  N   UNL     1      30.047  18.793  -6.677  1.00  0.00    -0.348 N
ATOM     38  C   UNL     1      31.389  18.428  -6.199  1.00  0.00     0.135 C
ATOM     39  C   UNL     1      29.430  20.078  -6.215  1.00  0.00     0.124 C
ATOM     40  C   UNL     1      31.570  18.724  -4.726  1.00  0.00     0.158 C
ATOM     41  C   UNL     1      30.523  21.075  -5.848  1.00  0.00     0.164 C
ATOM     42  S   UNL     1      31.465  20.478  -4.471  1.00  0.00     0.154 S
ATOM     43  O   UNL     1      30.689  20.721  -3.270  1.00  0.00    -0.229 OA
ATOM     44  O   UNL     1      32.803  21.026  -4.603  1.00  0.00    -0.229 OA
BRANCH  39  45
ATOM     45  C   UNL     1      28.555  20.755  -7.316  1.00  0.00     0.186 C
BRANCH  45  46
ATOM     46  O   UNL     1      27.161  20.907  -7.041  1.00  0.00    -0.379 OA
BRANCH  46  47
ATOM     47  C   UNL     1      26.276  19.993  -7.694  1.00  0.00     0.164 C
ATOM     48  G   UNL     1      24.901  19.971  -7.085  1.00  0.00     0.000 C
ENDBRANCH  46  47
ENDBRANCH  45  46
ENDBRANCH  39  45
ENDBRANCH  36  37
ENDBRANCH  10  31
TORSDOF 2
ENDMDL
MODEL 6
REMARK VINA RESULT:      -8.4      3.186      4.517
REMARK SMILES NC(=O)c1cnc2c3c1[nH]c1cc(ccc13)-c1ccc(nn1)N1CCS(=O)(=O)C[C@H]1COC[C@H]1C[C@H]1[C@H](C(F)(F)F)N2
REMARK SMILES IDX 4 1 5 2 6 3 7 4 8 5 9 6 10 7 11 8 12 9 13 10 14 11 15 12
REMARK SMILES IDX 16 13 2 15 1 16 3 17 42 20 37 22 36 23 35 24 34 25 38 27
REMARK SMILES IDX 39 28 40 29 41 30 17 31 18 32 22 33 19 34 21 35 20 36 23 37
REMARK SMILES IDX 24 38 30 39 25 40 29 41 26 42 27 43 28 44 31 45 32 46 33 47
REMARK H PARENT 10 14 1 18 1 19 42 21
REMARK Flexibility Score:   57.900
ROOT
ATOM      1  C   UNL     1      34.038  12.258  -2.665  1.00  0.00     0.082 A
ATOM      2  C   UNL     1      33.776  11.029  -3.263  1.00  0.00     0.129 A
ATOM      3  N   UNL     1      32.700  10.742  -4.049  1.00  0.00    -0.238 NA
ATOM      4  C   UNL     1      31.774  11.701  -4.272  1.00  0.00     0.136 A
ATOM      5  C   UNL     1      31.865  12.912  -3.556  1.00  0.00     0.051 A
ATOM      6  C   UNL     1      33.032  13.208  -2.860  1.00  0.00     0.065 A
ATOM      7  N   UNL     1      32.962  14.548  -2.522  1.00  0.00    -0.354 N
ATOM      8  C   UNL     1      31.794  15.101  -2.997  1.00  0.00     0.047 A
ATOM      9  C   UNL     1      31.384  16.434  -3.159  1.00  0.00     0.037 A
ATOM     10  C   UNL     1      30.129  16.645  -3.767  1.00  0.00     0.004 A
ATOM     11  C   UNL     1      29.228  15.566  -3.876  1.00  0.00     0.011 A
ATOM     12  C   UNL     1      29.664  14.254  -3.750  1.00  0.00     0.012 A
ATOM     13  C   UNL     1      31.008  14.036  -3.426  1.00  0.00     0.011 A
ATOM     14  H   UNL     1      33.727  15.050  -2.084  1.00  0.00     0.167 HD
ENDROOT
BRANCH   1  15
ATOM     15  C   UNL     1      35.258  12.597  -1.906  1.00  0.00     0.252 C
ATOM     16  N   UNL     1      35.778  13.855  -2.017  1.00  0.00    -0.365 N
ATOM     17  O   UNL     1      35.804  11.759  -1.194  1.00  0.00    -0.269 OA
ATOM     18  H   UNL     1      35.419  14.594  -2.603  1.00  0.00     0.159 HD
ATOM     19  H   UNL     1      36.616  14.052  -1.483  1.00  0.00     0.159 HD
ENDBRANCH   1  15
BRANCH   4  20
ATOM     20  N   UNL     1      30.888  11.508  -5.338  1.00  0.00    -0.358 N
ATOM     21  H   UNL     1      30.577  12.420  -5.667  1.00  0.00     0.162 HD
BRANCH  20  22
ATOM     22  C   UNL     1      29.739  10.603  -4.989  1.00  0.00     0.189 C
BRANCH  22  23
ATOM     23  C   UNL     1      30.003   9.245  -5.642  1.00  0.00     0.026 C
ATOM     24  C   UNL     1      29.161   8.040  -5.274  1.00  0.00     0.012 C
ATOM     25  C   UNL     1      30.632   8.008  -4.962  1.00  0.00     0.021 C
ATOM     26  G   UNL     1      31.096   7.925  -3.535  1.00  0.00     0.000 C
ENDBRANCH  22  23
BRANCH  22  27
ATOM     27  C   UNL     1      28.366  11.204  -5.455  1.00  0.00     0.408 C
ATOM     28  F   UNL     1      27.854  10.502  -6.496  1.00  0.00    -0.169 F
ATOM     29  F   UNL     1      27.438  11.192  -4.469  1.00  0.00    -0.169 F
ATOM     30  F   UNL     1      28.479  12.496  -5.844  1.00  0.00    -0.169 F
ENDBRANCH  22  27
ENDBRANCH  20  22
ENDBRANCH   4  20
BRANCH  10  31
ATOM     31  C   UNL     1      29.844  17.820  -4.623  1.00  0.00     0.093 A
ATOM     32  C   UNL     1      30.409  17.881  -5.895  1.00  0.00     0.035 A
ATOM     33  N   UNL     1      28.677  18.453  -4.368  1.00  0.00    -0.148 NA
ATOM     34  C   UNL     1      29.628  18.354  -6.944  1.00  0.00     0.051 A
ATOM     35  N   UNL     1      27.916  18.915  -5.402  1.00  0.00    -0.132 NA
ATOM     36  C   UNL     1      28.334  18.765  -6.676  1.00  0.00     0.151 A
BRANCH  36  37
ATOM     37  N   UNL     1      27.411  18.878  -7.732  1.00  0.00    -0.348 N
ATOM     38  C   UNL     1      27.197  20.280  -8.123  1.00  0.00     0.135 C
ATOM     39  C   UNL     1      26.225  17.985  -7.533  1.00  0.00     0.124 C
ATOM     40  C   UNL     1      26.047  20.912  -7.371  1.00  0.00     0.158 C
ATOM     41  C   UNL     1      25.053  18.484  -8.370  1.00  0.00     0.164 C
ATOM     42  S   UNL     1      24.539  20.087  -7.817  1.00  0.00     0.154 S
ATOM     43  O   UNL     1      23.744  19.903  -6.617  1.00  0.00    -0.229 OA
ATOM     44  O   UNL     1      23.982  20.775  -8.968  1.00  0.00    -0.229 OA
BRANCH  39  45
ATOM     45  C   UNL     1      26.500  16.514  -7.975  1.00  0.00     0.186 C
BRANCH  45  46
ATOM     46  O   UNL     1      25.956  15.474  -7.160  1.00  0.00    -0.379 OA
BRANCH  46  47
ATOM     47  C   UNL     1      26.406  15.422  -5.803  1.00  0.00     0.164 C
ATOM     48  G   UNL     1      25.701  14.371  -4.991  1.00  0.00     0.000 C
ENDBRANCH  46  47
ENDBRANCH  45  46
ENDBRANCH  39  45
ENDBRANCH  36  37
ENDBRANCH  10  31
TORSDOF 2
ENDMDL
MODEL 7
REMARK VINA RESULT:      -8.3      2.696      3.866
REMARK SMILES NC(=O)c1cnc2c3c1[nH]c1cc(ccc13)-c1ccc(nn1)N1CCS(=O)(=O)C[C@H]1COC[C@H]1C[C@H]1[C@H](C(F)(F)F)N2
REMARK SMILES IDX 4 1 5 2 6 3 7 4 8 5 9 6 10 7 11 8 12 9 13 10 14 11 15 12
REMARK SMILES IDX 16 13 2 15 1 16 3 17 42 20 37 22 36 23 35 24 34 25 38 27
REMARK SMILES IDX 39 28 40 29 41 30 17 31 18 32 22 33 19 34 21 35 20 36 23 37
REMARK SMILES IDX 24 38 30 39 25 40 29 41 26 42 27 43 28 44 31 45 32 46 33 47
REMARK H PARENT 10 14 1 18 1 19 42 21
REMARK Flexibility Score:   57.900
ROOT
ATOM      1  C   UNL     1      28.953   7.167  -5.790  1.00  0.00     0.082 A
ATOM      2  C   UNL     1      28.231   6.913  -6.951  1.00  0.00     0.129 A
ATOM      3  N   UNL     1      27.669   7.857  -7.759  1.00  0.00    -0.238 NA
ATOM      4  C   UNL     1      27.782   9.161  -7.423  1.00  0.00     0.136 A
ATOM      5  C   UNL     1      28.334   9.494  -6.170  1.00  0.00     0.051 A
ATOM      6  C   UNL     1      28.998   8.518  -5.434  1.00  0.00     0.065 A
ATOM      7  N   UNL     1      29.682   9.177  -4.429  1.00  0.00    -0.354 N
ATOM      8  C   UNL     1      29.478  10.536  -4.521  1.00  0.00     0.047 A
ATOM      9  C   UNL     1      30.142  11.627  -3.938  1.00  0.00     0.037 A
ATOM     10  C   UNL     1      29.713  12.913  -4.326  1.00  0.00     0.004 A
ATOM     11  C   UNL     1      28.478  13.056  -4.990  1.00  0.00     0.011 A
ATOM     12  C   UNL     1      27.859  11.969  -5.592  1.00  0.00     0.012 A
ATOM     13  C   UNL     1      28.455  10.711  -5.448  1.00  0.00     0.011 A
ATOM     14  H   UNL     1      30.324   8.710  -3.797  1.00  0.00     0.167 HD
ENDROOT
BRANCH   1  15
ATOM     15  C   UNL     1      29.654   6.152  -4.978  1.00  0.00     0.252 C
ATOM     16  N   UNL     1      29.166   4.876  -4.949  1.00  0.00    -0.365 N
ATOM     17  O   UNL     1      30.654   6.451  -4.331  1.00  0.00    -0.269 OA
ATOM     18  H   UNL     1      28.334   4.551  -5.418  1.00  0.00     0.159 HD
ATOM     19  H   UNL     1      29.671   4.207  -4.381  1.00  0.00     0.159 HD
ENDBRANCH   1  15
BRANCH   4  20
ATOM     20  N   UNL     1      27.516  10.109  -8.418  1.00  0.00    -0.358 N
ATOM     21  H   UNL     1      27.446  11.025  -7.978  1.00  0.00     0.162 HD
BRANCH  20  22
ATOM     22  C   UNL     1      26.303   9.773  -9.240  1.00  0.00     0.189 C
BRANCH  22  23
ATOM     23  C   UNL     1      26.753   9.634 -10.695  1.00  0.00     0.026 C
ATOM     24  C   UNL     1      25.791   9.126 -11.750  1.00  0.00     0.012 C
ATOM     25  C   UNL     1      27.020   8.313 -11.450  1.00  0.00     0.021 C
ATOM     26  G   UNL     1      26.883   6.928 -10.881  1.00  0.00     0.000 C
ENDBRANCH  22  23
BRANCH  22  27
ATOM     27  C   UNL     1      25.182  10.861  -9.090  1.00  0.00     0.408 C
ATOM     28  F   UNL     1      25.523  11.790  -8.163  1.00  0.00    -0.169 F
ATOM     29  F   UNL     1      24.945  11.520 -10.249  1.00  0.00    -0.169 F
ATOM     30  F   UNL     1      23.996  10.324  -8.718  1.00  0.00    -0.169 F
ENDBRANCH  22  27
ENDBRANCH  20  22
ENDBRANCH   4  20
BRANCH  10  31
ATOM     31  C   UNL     1      30.637  14.069  -4.414  1.00  0.00     0.093 A
ATOM     32  C   UNL     1      31.471  14.182  -5.524  1.00  0.00     0.035 A
ATOM     33  N   UNL     1      30.245  15.176  -3.744  1.00  0.00    -0.148 NA
ATOM     34  C   UNL     1      31.659  15.441  -6.085  1.00  0.00     0.051 A
ATOM     35  N   UNL     1      30.432  16.407  -4.301  1.00  0.00    -0.132 NA
ATOM     36  C   UNL     1      31.028  16.528  -5.505  1.00  0.00     0.151 A
BRANCH  36  37
ATOM     37  N   UNL     1      30.879  17.716  -6.243  1.00  0.00    -0.348 N
ATOM     38  C   UNL     1      32.143  18.460  -6.343  1.00  0.00     0.135 C
ATOM     39  C   UNL     1      29.626  18.448  -5.871  1.00  0.00     0.124 C
ATOM     40  C   UNL     1      32.305  19.463  -5.221  1.00  0.00     0.158 C
ATOM     41  C   UNL     1      29.742  19.914  -6.275  1.00  0.00     0.164 C
ATOM     42  S   UNL     1      31.042  20.703  -5.365  1.00  0.00     0.154 S
ATOM     43  O   UNL     1      30.533  20.996  -4.038  1.00  0.00    -0.229 OA
ATOM     44  O   UNL     1      31.561  21.768  -6.204  1.00  0.00    -0.229 OA
BRANCH  39  45
ATOM     45  C   UNL     1      28.362  17.882  -6.590  1.00  0.00     0.186 C
BRANCH  45  46
ATOM     46  O   UNL     1      28.334  16.478  -6.855  1.00  0.00    -0.379 OA
BRANCH  46  47
ATOM     47  C   UNL     1      27.792  16.075  -8.116  1.00  0.00     0.164 C
ATOM     48  G   UNL     1      27.728  14.581  -8.276  1.00  0.00     0.000 C
ENDBRANCH  46  47
ENDBRANCH  45  46
ENDBRANCH  39  45
ENDBRANCH  36  37
ENDBRANCH  10  31
TORSDOF 2
ENDMDL
MODEL 8
REMARK VINA RESULT:      -8.3      3.805      6.157
REMARK SMILES NC(=O)c1cnc2c3c1[nH]c1cc(ccc13)-c1ccc(nn1)N1CCS(=O)(=O)C[C@H]1COC[C@H]1C[C@H]1[C@H](C(F)(F)F)N2
REMARK SMILES IDX 4 1 5 2 6 3 7 4 8 5 9 6 10 7 11 8 12 9 13 10 14 11 15 12
REMARK SMILES IDX 16 13 2 15 1 16 3 17 42 20 37 22 36 23 35 24 34 25 38 27
REMARK SMILES IDX 39 28 40 29 41 30 17 31 18 32 22 33 19 34 21 35 20 36 23 37
REMARK SMILES IDX 24 38 30 39 25 40 29 41 26 42 27 43 28 44 31 45 32 46 33 47
REMARK H PARENT 10 14 1 18 1 19 42 21
REMARK Flexibility Score:   57.900
ROOT
ATOM      1  C   UNL     1      32.426  10.412  -3.096  1.00  0.00     0.082 A
ATOM      2  C   UNL     1      33.614  10.984  -2.653  1.00  0.00     0.129 A
ATOM      3  N   UNL     1      34.010  12.269  -2.879  1.00  0.00    -0.238 NA
ATOM      4  C   UNL     1      33.219  13.081  -3.615  1.00  0.00     0.136 A
ATOM      5  C   UNL     1      32.091  12.530  -4.256  1.00  0.00     0.051 A
ATOM      6  C   UNL     1      31.660  11.255  -3.906  1.00  0.00     0.065 A
ATOM      7  N   UNL     1      30.397  11.101  -4.450  1.00  0.00    -0.354 N
ATOM      8  C   UNL     1      30.020  12.245  -5.118  1.00  0.00     0.047 A
ATOM      9  C   UNL     1      28.775  12.690  -5.588  1.00  0.00     0.037 A
ATOM     10  C   UNL     1      28.736  13.977  -6.164  1.00  0.00     0.004 A
ATOM     11  C   UNL     1      29.944  14.601  -6.537  1.00  0.00     0.011 A
ATOM     12  C   UNL     1      31.160  14.166  -6.028  1.00  0.00     0.012 A
ATOM     13  C   UNL     1      31.162  13.037  -5.202  1.00  0.00     0.011 A
ATOM     14  H   UNL     1      29.812  10.292  -4.272  1.00  0.00     0.167 HD
ENDROOT
BRANCH   1  15
ATOM     15  C   UNL     1      31.949   9.057  -2.756  1.00  0.00     0.252 C
ATOM     16  N   UNL     1      31.864   8.695  -1.442  1.00  0.00    -0.365 N
ATOM     17  O   UNL     1      31.643   8.262  -3.641  1.00  0.00    -0.269 OA
ATOM     18  H   UNL     1      32.127   9.267  -0.654  1.00  0.00     0.159 HD
ATOM     19  H   UNL     1      31.535   7.758  -1.246  1.00  0.00     0.159 HD
ENDBRANCH   1  15
BRANCH   4  20
ATOM     20  N   UNL     1      33.460  14.457  -3.540  1.00  0.00    -0.358 N
ATOM     21  H   UNL     1      34.032  14.639  -2.717  1.00  0.00     0.162 HD
BRANCH  20  22
ATOM     22  C   UNL     1      32.199  15.276  -3.553  1.00  0.00     0.189 C
BRANCH  22  23
ATOM     23  C   UNL     1      32.593  16.731  -3.813  1.00  0.00     0.026 C
ATOM     24  C   UNL     1      31.633  17.673  -4.510  1.00  0.00     0.012 C
ATOM     25  C   UNL     1      32.940  17.356  -5.182  1.00  0.00     0.021 C
ATOM     26  G   UNL     1      32.951  16.638  -6.503  1.00  0.00     0.000 C
ENDBRANCH  22  23
BRANCH  22  27
ATOM     27  C   UNL     1      31.400  15.131  -2.210  1.00  0.00     0.408 C
ATOM     28  F   UNL     1      32.123  14.457  -1.281  1.00  0.00    -0.169 F
ATOM     29  F   UNL     1      31.076  16.331  -1.672  1.00  0.00    -0.169 F
ATOM     30  F   UNL     1      30.230  14.472  -2.380  1.00  0.00    -0.169 F
ENDBRANCH  22  27
ENDBRANCH  20  22
ENDBRANCH   4  20
BRANCH  10  31
ATOM     31  C   UNL     1      27.551  14.861  -6.063  1.00  0.00     0.093 A
ATOM     32  C   UNL     1      27.391  15.647  -4.925  1.00  0.00     0.035 A
ATOM     33  N   UNL     1      27.022  15.258  -7.243  1.00  0.00    -0.148 NA
ATOM     34  C   UNL     1      26.936  16.953  -5.081  1.00  0.00     0.051 A
ATOM     35  N   UNL     1      26.578  16.540  -7.389  1.00  0.00    -0.132 NA
ATOM     36  C   UNL     1      26.640  17.405  -6.355  1.00  0.00     0.151 A
BRANCH  36  37
ATOM     37  N   UNL     1      26.554  18.789  -6.595  1.00  0.00    -0.348 N
ATOM     38  C   UNL     1      25.227  19.175  -7.097  1.00  0.00     0.135 C
ATOM     39  C   UNL     1      27.777  19.311  -7.284  1.00  0.00     0.124 C
ATOM     40  C   UNL     1      25.160  19.153  -8.609  1.00  0.00     0.158 C
ATOM     41  C   UNL     1      27.460  20.633  -7.974  1.00  0.00     0.164 C
ATOM     42  S   UNL     1      26.261  20.387  -9.256  1.00  0.00     0.154 S
ATOM     43  O   UNL     1      26.952  19.830 -10.403  1.00  0.00    -0.229 OA
ATOM     44  O   UNL     1      25.513  21.626  -9.379  1.00  0.00    -0.229 OA
BRANCH  39  45
ATOM     45  C   UNL     1      28.952  19.589  -6.295  1.00  0.00     0.186 C
BRANCH  45  46
ATOM     46  O   UNL     1      29.396  20.942  -6.172  1.00  0.00    -0.379 OA
BRANCH  46  47
ATOM     47  C   UNL     1      30.479  21.181  -5.269  1.00  0.00     0.164 C
ATOM     48  G   UNL     1      31.823  21.144  -5.943  1.00  0.00     0.000 C
ENDBRANCH  46  47
ENDBRANCH  45  46
ENDBRANCH  39  45
ENDBRANCH  36  37
ENDBRANCH  10  31
TORSDOF 2
ENDMDL
MODEL 9
REMARK VINA RESULT:      -8.3      1.125      1.405
REMARK SMILES NC(=O)c1cnc2c3c1[nH]c1cc(ccc13)-c1ccc(nn1)N1CCS(=O)(=O)C[C@H]1COC[C@H]1C[C@H]1[C@H](C(F)(F)F)N2
REMARK SMILES IDX 4 1 5 2 6 3 7 4 8 5 9 6 10 7 11 8 12 9 13 10 14 11 15 12
REMARK SMILES IDX 16 13 2 15 1 16 3 17 42 20 37 22 36 23 35 24 34 25 38 27
REMARK SMILES IDX 39 28 40 29 41 30 17 31 18 32 22 33 19 34 21 35 20 36 23 37
REMARK SMILES IDX 24 38 30 39 25 40 29 41 26 42 27 43 28 44 31 45 32 46 33 47
REMARK H PARENT 10 14 1 18 1 19 42 21
REMARK Flexibility Score:   57.900
ROOT
ATOM      1  C   UNL     1      31.535   9.503  -3.620  1.00  0.00     0.082 A
ATOM      2  C   UNL     1      31.319   8.319  -4.320  1.00  0.00     0.129 A
ATOM      3  N   UNL     1      30.360   8.121  -5.268  1.00  0.00    -0.238 NA
ATOM      4  C   UNL     1      29.510   9.129  -5.564  1.00  0.00     0.136 A
ATOM      5  C   UNL     1      29.538  10.295  -4.773  1.00  0.00     0.051 A
ATOM      6  C   UNL     1      30.601  10.505  -3.901  1.00  0.00     0.065 A
ATOM      7  N   UNL     1      30.530  11.826  -3.499  1.00  0.00    -0.354 N
ATOM      8  C   UNL     1      29.463  12.453  -4.103  1.00  0.00     0.047 A
ATOM      9  C   UNL     1      29.128  13.809  -4.243  1.00  0.00     0.037 A
ATOM     10  C   UNL     1      27.982  14.105  -5.011  1.00  0.00     0.004 A
ATOM     11  C   UNL     1      27.069  13.073  -5.310  1.00  0.00     0.011 A
ATOM     12  C   UNL     1      27.437  11.739  -5.200  1.00  0.00     0.012 A
ATOM     13  C   UNL     1      28.711  11.447  -4.701  1.00  0.00     0.011 A
ATOM     14  H   UNL     1      31.240  12.271  -2.927  1.00  0.00     0.167 HD
ENDROOT
BRANCH   1  15
ATOM     15  C   UNL     1      32.643   9.749  -2.676  1.00  0.00     0.252 C
ATOM     16  N   UNL     1      32.900   8.828  -1.702  1.00  0.00    -0.365 N
ATOM     17  O   UNL     1      33.318  10.772  -2.759  1.00  0.00    -0.269 OA
ATOM     18  H   UNL     1      32.377   7.981  -1.537  1.00  0.00     0.159 HD
ATOM     19  H   UNL     1      33.666   9.031  -1.072  1.00  0.00     0.159 HD
ENDBRANCH   1  15
BRANCH   4  20
ATOM     20  N   UNL     1      28.782   9.031  -6.755  1.00  0.00    -0.358 N
ATOM     21  H   UNL     1      28.724   9.958  -7.174  1.00  0.00     0.162 HD
BRANCH  20  22
ATOM     22  C   UNL     1      27.429   8.402  -6.566  1.00  0.00     0.189 C
BRANCH  22  23
ATOM     23  C   UNL     1      27.630   6.889  -6.466  1.00  0.00     0.026 C
ATOM     24  C   UNL     1      26.596   5.939  -7.033  1.00  0.00     0.012 C
ATOM     25  C   UNL     1      26.850   5.919  -5.551  1.00  0.00     0.021 C
ATOM     26  G   UNL     1      25.753   6.297  -4.595  1.00  0.00     0.000 C
ENDBRANCH  22  23
BRANCH  22  27
ATOM     27  C   UNL     1      26.449   8.773  -7.734  1.00  0.00     0.408 C
ATOM     28  F   UNL     1      26.432  10.111  -7.952  1.00  0.00    -0.169 F
ATOM     29  F   UNL     1      26.795   8.182  -8.902  1.00  0.00    -0.169 F
ATOM     30  F   UNL     1      25.179   8.379  -7.479  1.00  0.00    -0.169 F
ENDBRANCH  22  27
ENDBRANCH  20  22
ENDBRANCH   4  20
BRANCH  10  31
ATOM     31  C   UNL     1      27.865  15.335  -5.828  1.00  0.00     0.093 A
ATOM     32  C   UNL     1      27.498  16.526  -5.206  1.00  0.00     0.035 A
ATOM     33  N   UNL     1      28.621  15.360  -6.949  1.00  0.00    -0.148 NA
ATOM     34  C   UNL     1      28.143  17.698  -5.588  1.00  0.00     0.051 A
ATOM     35  N   UNL     1      29.252  16.513  -7.316  1.00  0.00    -0.132 NA
ATOM     36  C   UNL     1      29.104  17.635  -6.581  1.00  0.00     0.151 A
BRANCH  36  37
ATOM     37  N   UNL     1      30.028  18.687  -6.719  1.00  0.00    -0.348 N
ATOM     38  C   UNL     1      31.378  18.290  -6.293  1.00  0.00     0.135 C
ATOM     39  C   UNL     1      29.463  19.990  -6.241  1.00  0.00     0.124 C
ATOM     40  C   UNL     1      31.624  18.588  -4.830  1.00  0.00     0.158 C
ATOM     41  C   UNL     1      30.594  20.960  -5.923  1.00  0.00     0.164 C
ATOM     42  S   UNL     1      31.574  20.346  -4.580  1.00  0.00     0.154 S
ATOM     43  O   UNL     1      30.852  20.614  -3.351  1.00  0.00    -0.229 OA
ATOM     44  O   UNL     1      32.920  20.858  -4.768  1.00  0.00    -0.229 OA
BRANCH  39  45
ATOM     45  C   UNL     1      28.562  20.683  -7.310  1.00  0.00     0.186 C
BRANCH  45  46
ATOM     46  O   UNL     1      27.148  20.601  -7.127  1.00  0.00    -0.379 OA
BRANCH  46  47
ATOM     47  C   UNL     1      26.380  20.166  -8.252  1.00  0.00     0.164 C
ATOM     48  G   UNL     1      26.640  20.980  -9.489  1.00  0.00     0.000 C
ENDBRANCH  46  47
ENDBRANCH  45  46
ENDBRANCH  39  45
ENDBRANCH  36  37
ENDBRANCH  10  31
TORSDOF 2
ENDMDL
