MODEL 1
REMARK VINA RESULT:      -8.4      0.000      0.000
REMARK SMILES NC(=O)c1cnc2c3c1[nH]c1cc(ccc13)-c1ccc(nn1)N1CCS(=O)(=O)C[C@@H]1CSCC1(CC1)[C@H](C(F)(F)F)N2
REMARK SMILES IDX 4 1 5 2 6 3 7 4 8 5 9 6 10 7 11 8 12 9 13 10 14 11 15 12
REMARK SMILES IDX 16 13 2 15 1 16 3 17 42 20 37 22 34 23 35 24 36 25 38 27
REMARK SMILES IDX 39 28 40 29 41 30 17 31 18 32 22 33 19 34 21 35 20 36 23 37
REMARK SMILES IDX 24 38 30 39 25 40 29 41 26 42 27 43 28 44 31 45 32 46 33 47
REMARK H PARENT 10 14 1 18 1 19 42 21
REMARK Flexibility Score:   57.900
ROOT
ATOM      1  C   UNL     1      31.101   8.921  -3.675  1.00  0.00     0.082 A
ATOM      2  C   UNL     1      30.984   7.820  -4.517  1.00  0.00     0.129 A
ATOM      3  N   UNL     1      30.183   7.743  -5.614  1.00  0.00    -0.238 NA
ATOM      4  C   UNL     1      29.400   8.799  -5.940  1.00  0.00     0.136 A
ATOM      5  C   UNL     1      29.337   9.893  -5.049  1.00  0.00     0.051 A
ATOM      6  C   UNL     1      30.247   9.979  -4.000  1.00  0.00     0.065 A
ATOM      7  N   UNL     1      30.142  11.254  -3.478  1.00  0.00    -0.354 N
ATOM      8  C   UNL     1      29.223  11.990  -4.192  1.00  0.00     0.047 A
ATOM      9  C   UNL     1      28.974  13.369  -4.256  1.00  0.00     0.037 A
ATOM     10  C   UNL     1      28.025  13.804  -5.208  1.00  0.00     0.004 A
ATOM     11  C   UNL     1      27.154  12.863  -5.786  1.00  0.00     0.011 A
ATOM     12  C   UNL     1      27.409  11.502  -5.699  1.00  0.00     0.012 A
ATOM     13  C   UNL     1      28.551  11.083  -5.005  1.00  0.00     0.011 A
ATOM     14  H   UNL     1      30.761  11.610  -2.759  1.00  0.00     0.167 HD
ENDROOT
BRANCH   1  15
ATOM     15  C   UNL     1      32.045   9.034  -2.544  1.00  0.00     0.252 C
ATOM     16  N   UNL     1      31.608   8.730  -1.286  1.00  0.00    -0.365 N
ATOM     17  O   UNL     1      33.199   9.409  -2.729  1.00  0.00    -0.269 OA
ATOM     18  H   UNL     1      32.279   8.822  -0.535  1.00  0.00     0.159 HD
ATOM     19  H   UNL     1      30.667   8.463  -1.038  1.00  0.00     0.159 HD
ENDBRANCH   1  15
BRANCH   4  20
ATOM     20  N   UNL     1      28.822   8.782  -7.208  1.00  0.00    -0.358 N
ATOM     21  H   UNL     1      29.053   9.644  -7.697  1.00  0.00     0.162 HD
BRANCH  20  22
ATOM     22  C   UNL     1      27.361   8.426  -7.256  1.00  0.00     0.193 C
BRANCH  22  23
ATOM     23  C   UNL     1      27.167   6.876  -7.228  1.00  0.00     0.009 C
ATOM     24  C   UNL     1      25.773   6.294  -7.007  1.00  0.00     0.011 C
ATOM     25  C   UNL     1      26.779   6.231  -5.900  1.00  0.00     0.011 C
ATOM     26  G   UNL     1      28.128   6.043  -8.083  1.00  0.00     0.000 C
ENDBRANCH  22  23
BRANCH  22  27
ATOM     27  C   UNL     1      26.647   9.081  -8.480  1.00  0.00     0.409 C
ATOM     28  F   UNL     1      26.565   8.216  -9.522  1.00  0.00    -0.169 F
ATOM     29  F   UNL     1      25.386   9.476  -8.191  1.00  0.00    -0.169 F
ATOM     30  F   UNL     1      27.301  10.183  -8.920  1.00  0.00    -0.169 F
ENDBRANCH  22  27
ENDBRANCH  20  22
ENDBRANCH   4  20
BRANCH  10  31
ATOM     31  C   UNL     1      28.142  15.104  -5.906  1.00  0.00     0.093 A
ATOM     32  C   UNL     1      27.383  16.172  -5.443  1.00  0.00     0.035 A
ATOM     33  N   UNL     1      29.312  15.335  -6.543  1.00  0.00    -0.148 NA
ATOM     34  C   UNL     1      27.988  17.419  -5.363  1.00  0.00     0.051 A
ATOM     35  N   UNL     1      29.889  16.577  -6.479  1.00  0.00    -0.132 NA
ATOM     36  C   UNL     1      29.303  17.568  -5.778  1.00  0.00     0.151 A
BRANCH  36  37
ATOM     37  N   UNL     1      30.057  18.662  -5.378  1.00  0.00    -0.349 N
ATOM     38  C   UNL     1      30.043  19.833  -6.257  1.00  0.00     0.134 C
ATOM     39  C   UNL     1      31.069  18.485  -4.309  1.00  0.00     0.108 C
ATOM     40  C   UNL     1      31.436  20.283  -6.617  1.00  0.00     0.158 C
ATOM     41  C   UNL     1      31.525  19.862  -3.832  1.00  0.00     0.162 C
ATOM     42  S   UNL     1      32.296  20.780  -5.144  1.00  0.00     0.154 S
ATOM     43  O   UNL     1      33.669  20.319  -5.251  1.00  0.00    -0.229 OA
ATOM     44  O   UNL     1      32.010  22.184  -4.914  1.00  0.00    -0.229 OA
BRANCH  39  45
ATOM     45  C   UNL     1      32.297  17.600  -4.710  1.00  0.00     0.095 C
BRANCH  45  46
ATOM     46  S   UNL     1      32.518  16.027  -3.772  1.00  0.00    -0.159 SA
BRANCH  46  47
ATOM     47  C   UNL     1      31.082  16.136  -2.670  1.00  0.00     0.079 C
ATOM     48  G   UNL     1      31.026  15.094  -1.547  1.00  0.00     0.000 C
ENDBRANCH  46  47
ENDBRANCH  45  46
ENDBRANCH  39  45
ENDBRANCH  36  37
ENDBRANCH  10  31
TORSDOF 2
ENDMDL
MODEL 2
REMARK VINA RESULT:      -8.4      3.920     10.305
REMARK SMILES NC(=O)c1cnc2c3c1[nH]c1cc(ccc13)-c1ccc(nn1)N1CCS(=O)(=O)C[C@@H]1CSCC1(CC1)[C@H](C(F)(F)F)N2
REMARK SMILES IDX 4 1 5 2 6 3 7 4 8 5 9 6 10 7 11 8 12 9 13 10 14 11 15 12
REMARK SMILES IDX 16 13 2 15 1 16 3 17 42 20 37 22 34 23 35 24 36 25 38 27
REMARK SMILES IDX 39 28 40 29 41 30 17 31 18 32 22 33 19 34 21 35 20 36 23 37
REMARK SMILES IDX 24 38 30 39 25 40 29 41 26 42 27 43 28 44 31 45 32 46 33 47
REMARK H PARENT 10 14 1 18 1 19 42 21
REMARK Flexibility Score:   57.900
ROOT
ATOM      1  C   UNL     1      32.456  20.854  -5.911  1.00  0.00     0.082 A
ATOM      2  C   UNL     1      31.368  21.718  -5.957  1.00  0.00     0.129 A
ATOM      3  N   UNL     1      30.062  21.343  -6.035  1.00  0.00    -0.238 NA
ATOM      4  C   UNL     1      29.751  20.027  -6.094  1.00  0.00     0.136 A
ATOM      5  C   UNL     1      30.800  19.089  -6.216  1.00  0.00     0.051 A
ATOM      6  C   UNL     1      32.115  19.503  -6.025  1.00  0.00     0.065 A
ATOM      7  N   UNL     1      32.886  18.360  -5.922  1.00  0.00    -0.354 N
ATOM      8  C   UNL     1      32.092  17.238  -5.999  1.00  0.00     0.047 A
ATOM      9  C   UNL     1      32.331  15.896  -5.666  1.00  0.00     0.037 A
ATOM     10  C   UNL     1      31.234  15.012  -5.751  1.00  0.00     0.004 A
ATOM     11  C   UNL     1      30.087  15.408  -6.463  1.00  0.00     0.011 A
ATOM     12  C   UNL     1      29.876  16.738  -6.797  1.00  0.00     0.012 A
ATOM     13  C   UNL     1      30.842  17.679  -6.422  1.00  0.00     0.011 A
ATOM     14  H   UNL     1      33.872  18.378  -5.689  1.00  0.00     0.167 HD
ENDROOT
BRANCH   1  15
ATOM     15  C   UNL     1      33.864  21.263  -5.727  1.00  0.00     0.252 C
ATOM     16  N   UNL     1      34.707  21.226  -6.800  1.00  0.00    -0.365 N
ATOM     17  O   UNL     1      34.272  21.618  -4.626  1.00  0.00    -0.269 OA
ATOM     18  H   UNL     1      35.665  21.509  -6.638  1.00  0.00     0.159 HD
ATOM     19  H   UNL     1      34.470  20.902  -7.726  1.00  0.00     0.159 HD
ENDBRANCH   1  15
BRANCH   4  20
ATOM     20  N   UNL     1      28.414  19.689  -5.889  1.00  0.00    -0.358 N
ATOM     21  H   UNL     1      28.354  18.964  -5.177  1.00  0.00     0.162 HD
BRANCH  20  22
ATOM     22  C   UNL     1      27.616  19.394  -7.129  1.00  0.00     0.193 C
BRANCH  22  23
ATOM     23  C   UNL     1      26.998  20.705  -7.715  1.00  0.00     0.009 C
ATOM     24  C   UNL     1      26.336  20.678  -9.091  1.00  0.00     0.011 C
ATOM     25  C   UNL     1      27.675  21.330  -8.931  1.00  0.00     0.011 C
ATOM     26  G   UNL     1      26.439  21.716  -6.707  1.00  0.00     0.000 C
ENDBRANCH  22  23
BRANCH  22  27
ATOM     27  C   UNL     1      26.530  18.303  -6.872  1.00  0.00     0.409 C
ATOM     28  F   UNL     1      25.310  18.860  -6.672  1.00  0.00    -0.169 F
ATOM     29  F   UNL     1      26.409  17.441  -7.908  1.00  0.00    -0.169 F
ATOM     30  F   UNL     1      26.815  17.551  -5.782  1.00  0.00    -0.169 F
ENDBRANCH  22  27
ENDBRANCH  20  22
ENDBRANCH   4  20
BRANCH  10  31
ATOM     31  C   UNL     1      31.070  13.862  -4.832  1.00  0.00     0.093 A
ATOM     32  C   UNL     1      29.911  13.786  -4.070  1.00  0.00     0.035 A
ATOM     33  N   UNL     1      31.730  12.731  -5.171  1.00  0.00    -0.148 NA
ATOM     34  C   UNL     1      29.289  12.550  -3.945  1.00  0.00     0.051 A
ATOM     35  N   UNL     1      31.117  11.514  -5.020  1.00  0.00    -0.132 NA
ATOM     36  C   UNL     1      29.858  11.436  -4.545  1.00  0.00     0.151 A
BRANCH  36  37
ATOM     37  N   UNL     1      29.110  10.290  -4.772  1.00  0.00    -0.349 N
ATOM     38  C   UNL     1      29.844   9.026  -4.862  1.00  0.00     0.134 C
ATOM     39  C   UNL     1      27.708  10.428  -5.238  1.00  0.00     0.108 C
ATOM     40  C   UNL     1      29.515   8.272  -6.125  1.00  0.00     0.158 C
ATOM     41  C   UNL     1      27.013   9.075  -5.105  1.00  0.00     0.162 C
ATOM     42  S   UNL     1      27.791   7.844  -6.125  1.00  0.00     0.154 S
ATOM     43  O   UNL     1      27.288   8.014  -7.476  1.00  0.00    -0.229 OA
ATOM     44  O   UNL     1      27.648   6.570  -5.445  1.00  0.00    -0.229 OA
BRANCH  39  45
ATOM     45  C   UNL     1      27.553  10.994  -6.689  1.00  0.00     0.095 C
BRANCH  45  46
ATOM     46  S   UNL     1      27.071  12.769  -6.832  1.00  0.00    -0.159 SA
BRANCH  46  47
ATOM     47  C   UNL     1      26.266  12.726  -8.457  1.00  0.00     0.079 C
ATOM     48  G   UNL     1      26.631  13.871  -9.408  1.00  0.00     0.000 C
ENDBRANCH  46  47
ENDBRANCH  45  46
ENDBRANCH  39  45
ENDBRANCH  36  37
ENDBRANCH  10  31
TORSDOF 2
ENDMDL
MODEL 3
REMARK VINA RESULT:      -8.2      5.059     10.508
REMARK SMILES NC(=O)c1cnc2c3c1[nH]c1cc(ccc13)-c1ccc(nn1)N1CCS(=O)(=O)C[C@@H]1CSCC1(CC1)[C@H](C(F)(F)F)N2
REMARK SMILES IDX 4 1 5 2 6 3 7 4 8 5 9 6 10 7 11 8 12 9 13 10 14 11 15 12
REMARK SMILES IDX 16 13 2 15 1 16 3 17 42 20 37 22 34 23 35 24 36 25 38 27
REMARK SMILES IDX 39 28 40 29 41 30 17 31 18 32 22 33 19 34 21 35 20 36 23 37
REMARK SMILES IDX 24 38 30 39 25 40 29 41 26 42 27 43 28 44 31 45 32 46 33 47
REMARK H PARENT 10 14 1 18 1 19 42 21
REMARK Flexibility Score:   57.900
ROOT
ATOM      1  C   UNL     1      27.545  19.983  -7.560  1.00  0.00     0.082 A
ATOM      2  C   UNL     1      28.410  21.052  -7.353  1.00  0.00     0.129 A
ATOM      3  N   UNL     1      29.510  21.036  -6.552  1.00  0.00    -0.238 NA
ATOM      4  C   UNL     1      29.816  19.910  -5.864  1.00  0.00     0.136 A
ATOM      5  C   UNL     1      28.902  18.834  -5.891  1.00  0.00     0.051 A
ATOM      6  C   UNL     1      27.849  18.850  -6.801  1.00  0.00     0.065 A
ATOM      7  N   UNL     1      27.300  17.581  -6.803  1.00  0.00    -0.354 N
ATOM      8  C   UNL     1      28.001  16.755  -5.954  1.00  0.00     0.047 A
ATOM      9  C   UNL     1      28.035  15.358  -5.823  1.00  0.00     0.037 A
ATOM     10  C   UNL     1      28.980  14.824  -4.920  1.00  0.00     0.004 A
ATOM     11  C   UNL     1      29.579  15.674  -3.973  1.00  0.00     0.011 A
ATOM     12  C   UNL     1      29.521  17.053  -4.111  1.00  0.00     0.012 A
ATOM     13  C   UNL     1      28.834  17.583  -5.210  1.00  0.00     0.011 A
ATOM     14  H   UNL     1      26.572  17.295  -7.447  1.00  0.00     0.167 HD
ENDROOT
BRANCH   1  15
ATOM     15  C   UNL     1      26.409  19.975  -8.505  1.00  0.00     0.252 C
ATOM     16  N   UNL     1      25.139  20.060  -8.011  1.00  0.00    -0.365 N
ATOM     17  O   UNL     1      26.604  19.881  -9.713  1.00  0.00    -0.269 OA
ATOM     18  H   UNL     1      24.385  20.047  -8.686  1.00  0.00     0.159 HD
ATOM     19  H   UNL     1      24.887  20.089  -7.035  1.00  0.00     0.159 HD
ENDBRANCH   1  15
BRANCH   4  20
ATOM     20  N   UNL     1      31.085  19.851  -5.292  1.00  0.00    -0.358 N
ATOM     21  H   UNL     1      31.151  20.537  -4.544  1.00  0.00     0.162 HD
BRANCH  20  22
ATOM     22  C   UNL     1      32.240  19.886  -6.256  1.00  0.00     0.193 C
BRANCH  22  23
ATOM     23  C   UNL     1      32.982  18.511  -6.283  1.00  0.00     0.009 C
ATOM     24  C   UNL     1      32.198  17.235  -6.580  1.00  0.00     0.011 C
ATOM     25  C   UNL     1      32.659  17.505  -5.181  1.00  0.00     0.011 C
ATOM     26  G   UNL     1      34.452  18.528  -6.718  1.00  0.00     0.000 C
ENDBRANCH  22  23
BRANCH  22  27
ATOM     27  C   UNL     1      33.213  21.067  -5.950  1.00  0.00     0.409 C
ATOM     28  F   UNL     1      33.708  20.983  -4.690  1.00  0.00    -0.169 F
ATOM     29  F   UNL     1      34.271  21.096  -6.792  1.00  0.00    -0.169 F
ATOM     30  F   UNL     1      32.602  22.271  -6.065  1.00  0.00    -0.169 F
ENDBRANCH  22  27
ENDBRANCH  20  22
ENDBRANCH   4  20
BRANCH  10  31
ATOM     31  C   UNL     1      29.649  13.523  -5.150  1.00  0.00     0.093 A
ATOM     32  C   UNL     1      30.999  13.525  -5.480  1.00  0.00     0.035 A
ATOM     33  N   UNL     1      29.112  12.457  -4.515  1.00  0.00    -0.148 NA
ATOM     34  C   UNL     1      31.822  12.583  -4.876  1.00  0.00     0.051 A
ATOM     35  N   UNL     1      29.932  11.519  -3.944  1.00  0.00    -0.132 NA
ATOM     36  C   UNL     1      31.272  11.656  -4.002  1.00  0.00     0.151 A
BRANCH  36  37
ATOM     37  N   UNL     1      32.071  10.962  -3.105  1.00  0.00    -0.349 N
ATOM     38  C   UNL     1      33.358  11.569  -2.757  1.00  0.00     0.134 C
ATOM     39  C   UNL     1      31.762   9.541  -2.817  1.00  0.00     0.108 C
ATOM     40  C   UNL     1      34.505  10.614  -2.961  1.00  0.00     0.158 C
ATOM     41  C   UNL     1      32.559   9.104  -1.591  1.00  0.00     0.162 C
ATOM     42  S   UNL     1      34.309   9.217  -1.881  1.00  0.00     0.154 S
ATOM     43  O   UNL     1      34.708   8.028  -2.613  1.00  0.00    -0.229 OA
ATOM     44  O   UNL     1      34.936   9.542  -0.614  1.00  0.00    -0.229 OA
BRANCH  39  45
ATOM     45  C   UNL     1      32.004   8.562  -4.016  1.00  0.00     0.095 C
BRANCH  45  46
ATOM     46  S   UNL     1      30.602   7.450  -4.465  1.00  0.00    -0.159 SA
BRANCH  46  47
ATOM     47  C   UNL     1      29.762   8.508  -5.675  1.00  0.00     0.079 C
ATOM     48  G   UNL     1      28.886   7.779  -6.700  1.00  0.00     0.000 C
ENDBRANCH  46  47
ENDBRANCH  45  46
ENDBRANCH  39  45
ENDBRANCH  36  37
ENDBRANCH  10  31
TORSDOF 2
ENDMDL
MODEL 4
REMARK VINA RESULT:      -8.1      2.255      4.265
REMARK SMILES NC(=O)c1cnc2c3c1[nH]c1cc(ccc13)-c1ccc(nn1)N1CCS(=O)(=O)C[C@@H]1CSCC1(CC1)[C@H](C(F)(F)F)N2
REMARK SMILES IDX 4 1 5 2 6 3 7 4 8 5 9 6 10 7 11 8 12 9 13 10 14 11 15 12
REMARK SMILES IDX 16 13 2 15 1 16 3 17 42 20 37 22 34 23 35 24 36 25 38 27
REMARK SMILES IDX 39 28 40 29 41 30 17 31 18 32 22 33 19 34 21 35 20 36 23 37
REMARK SMILES IDX 24 38 30 39 25 40 29 41 26 42 27 43 28 44 31 45 32 46 33 47
REMARK H PARENT 10 14 1 18 1 19 42 21
REMARK Flexibility Score:   57.900
ROOT
ATOM      1  C   UNL     1      28.861   7.900  -5.720  1.00  0.00     0.082 A
ATOM      2  C   UNL     1      27.545   7.990  -6.159  1.00  0.00     0.129 A
ATOM      3  N   UNL     1      26.798   9.127  -6.193  1.00  0.00    -0.238 NA
ATOM      4  C   UNL     1      27.336  10.289  -5.755  1.00  0.00     0.136 A
ATOM      5  C   UNL     1      28.608  10.256  -5.143  1.00  0.00     0.051 A
ATOM      6  C   UNL     1      29.379   9.100  -5.224  1.00  0.00     0.065 A
ATOM      7  N   UNL     1      30.651   9.433  -4.800  1.00  0.00    -0.354 N
ATOM      8  C   UNL     1      30.718  10.774  -4.495  1.00  0.00     0.047 A
ATOM      9  C   UNL     1      31.808  11.640  -4.312  1.00  0.00     0.037 A
ATOM     10  C   UNL     1      31.512  13.009  -4.134  1.00  0.00     0.004 A
ATOM     11  C   UNL     1      30.197  13.390  -3.811  1.00  0.00     0.011 A
ATOM     12  C   UNL     1      29.135  12.515  -3.983  1.00  0.00     0.012 A
ATOM     13  C   UNL     1      29.405  11.231  -4.473  1.00  0.00     0.011 A
ATOM     14  H   UNL     1      31.435   8.792  -4.846  1.00  0.00     0.167 HD
ENDROOT
BRANCH   1  15
ATOM     15  C   UNL     1      29.698   6.684  -5.776  1.00  0.00     0.252 C
ATOM     16  N   UNL     1      29.682   5.924  -6.911  1.00  0.00    -0.365 N
ATOM     17  O   UNL     1      30.386   6.354  -4.815  1.00  0.00    -0.269 OA
ATOM     18  H   UNL     1      30.264   5.096  -6.914  1.00  0.00     0.159 HD
ATOM     19  H   UNL     1      29.111   6.092  -7.725  1.00  0.00     0.159 HD
ENDBRANCH   1  15
BRANCH   4  20
ATOM     20  N   UNL     1      26.645  11.458  -6.070  1.00  0.00    -0.358 N
ATOM     21  H   UNL     1      25.659  11.243  -6.201  1.00  0.00     0.162 HD
BRANCH  20  22
ATOM     22  C   UNL     1      27.239  12.293  -7.170  1.00  0.00     0.193 C
BRANCH  22  23
ATOM     23  C   UNL     1      26.993  13.814  -6.908  1.00  0.00     0.009 C
ATOM     24  C   UNL     1      26.132  14.246  -5.724  1.00  0.00     0.011 C
ATOM     25  C   UNL     1      25.580  14.352  -7.112  1.00  0.00     0.011 C
ATOM     26  G   UNL     1      28.109  14.777  -7.329  1.00  0.00     0.000 C
ENDBRANCH  22  23
BRANCH  22  27
ATOM     27  C   UNL     1      26.719  11.853  -8.575  1.00  0.00     0.409 C
ATOM     28  F   UNL     1      25.364  11.801  -8.604  1.00  0.00    -0.169 F
ATOM     29  F   UNL     1      27.106  12.700  -9.557  1.00  0.00    -0.169 F
ATOM     30  F   UNL     1      27.179  10.628  -8.925  1.00  0.00    -0.169 F
ENDBRANCH  22  27
ENDBRANCH  20  22
ENDBRANCH   4  20
BRANCH  10  31
ATOM     31  C   UNL     1      32.403  14.083  -4.629  1.00  0.00     0.093 A
ATOM     32  C   UNL     1      32.402  14.367  -5.990  1.00  0.00     0.035 A
ATOM     33  N   UNL     1      32.721  15.051  -3.740  1.00  0.00    -0.148 NA
ATOM     34  C   UNL     1      32.415  15.699  -6.381  1.00  0.00     0.051 A
ATOM     35  N   UNL     1      32.756  16.361  -4.141  1.00  0.00    -0.132 NA
ATOM     36  C   UNL     1      32.468  16.693  -5.415  1.00  0.00     0.151 A
BRANCH  36  37
ATOM     37  N   UNL     1      32.108  17.999  -5.717  1.00  0.00    -0.349 N
ATOM     38  C   UNL     1      33.123  19.033  -5.506  1.00  0.00     0.134 C
ATOM     39  C   UNL     1      30.672  18.324  -5.904  1.00  0.00     0.108 C
ATOM     40  C   UNL     1      32.609  20.160  -4.648  1.00  0.00     0.158 C
ATOM     41  C   UNL     1      30.562  19.711  -6.532  1.00  0.00     0.162 C
ATOM     42  S   UNL     1      31.254  20.959  -5.473  1.00  0.00     0.154 S
ATOM     43  O   UNL     1      30.254  21.289  -4.474  1.00  0.00    -0.229 OA
ATOM     44  O   UNL     1      31.803  21.994  -6.330  1.00  0.00    -0.229 OA
BRANCH  39  45
ATOM     45  C   UNL     1      29.806  18.231  -4.602  1.00  0.00     0.095 C
BRANCH  45  46
ATOM     46  S   UNL     1      28.133  17.475  -4.781  1.00  0.00    -0.159 SA
BRANCH  46  47
ATOM     47  C   UNL     1      27.450  18.568  -6.057  1.00  0.00     0.079 C
ATOM     48  G   UNL     1      26.209  18.042  -6.786  1.00  0.00     0.000 C
ENDBRANCH  46  47
ENDBRANCH  45  46
ENDBRANCH  39  45
ENDBRANCH  36  37
ENDBRANCH  10  31
TORSDOF 2
ENDMDL
MODEL 5
REMARK VINA RESULT:      -8.1      2.421      4.204
REMARK SMILES NC(=O)c1cnc2c3c1[nH]c1cc(ccc13)-c1ccc(nn1)N1CCS(=O)(=O)C[C@@H]1CSCC1(CC1)[C@H](C(F)(F)F)N2
REMARK SMILES IDX 4 1 5 2 6 3 7 4 8 5 9 6 10 7 11 8 12 9 13 10 14 11 15 12
REMARK SMILES IDX 16 13 2 15 1 16 3 17 42 20 37 22 34 23 35 24 36 25 38 27
REMARK SMILES IDX 39 28 40 29 41 30 17 31 18 32 22 33 19 34 21 35 20 36 23 37
REMARK SMILES IDX 24 38 30 39 25 40 29 41 26 42 27 43 28 44 31 45 32 46 33 47
REMARK H PARENT 10 14 1 18 1 19 42 21
REMARK Flexibility Score:   57.900
ROOT
ATOM      1  C   UNL     1      28.639   6.714  -6.623  1.00  0.00     0.082 A
ATOM      2  C   UNL     1      27.549   6.823  -7.480  1.00  0.00     0.129 A
ATOM      3  N   UNL     1      26.856   7.965  -7.738  1.00  0.00    -0.238 NA
ATOM      4  C   UNL     1      27.212   9.114  -7.115  1.00  0.00     0.136 A
ATOM      5  C   UNL     1      28.202   9.058  -6.110  1.00  0.00     0.051 A
ATOM      6  C   UNL     1      28.956   7.899  -5.953  1.00  0.00     0.065 A
ATOM      7  N   UNL     1      30.010   8.214  -5.116  1.00  0.00    -0.354 N
ATOM      8  C   UNL     1      29.968   9.547  -4.774  1.00  0.00     0.047 A
ATOM      9  C   UNL     1      30.930  10.401  -4.213  1.00  0.00     0.037 A
ATOM     10  C   UNL     1      30.589  11.768  -4.113  1.00  0.00     0.004 A
ATOM     11  C   UNL     1      29.242  12.150  -4.245  1.00  0.00     0.011 A
ATOM     12  C   UNL     1      28.302  11.286  -4.787  1.00  0.00     0.012 A
ATOM     13  C   UNL     1      28.724  10.012  -5.187  1.00  0.00     0.011 A
ATOM     14  H   UNL     1      30.765   7.569  -4.910  1.00  0.00     0.167 HD
ENDROOT
BRANCH   1  15
ATOM     15  C   UNL     1      29.448   5.494  -6.423  1.00  0.00     0.252 C
ATOM     16  N   UNL     1      29.787   4.740  -7.510  1.00  0.00    -0.365 N
ATOM     17  O   UNL     1      29.799   5.156  -5.297  1.00  0.00    -0.269 OA
ATOM     18  H   UNL     1      30.338   3.909  -7.336  1.00  0.00     0.159 HD
ATOM     19  H   UNL     1      29.500   4.916  -8.461  1.00  0.00     0.159 HD
ENDBRANCH   1  15
BRANCH   4  20
ATOM     20  N   UNL     1      26.666  10.294  -7.617  1.00  0.00    -0.358 N
ATOM     21  H   UNL     1      25.951  10.634  -6.979  1.00  0.00     0.162 HD
BRANCH  20  22
ATOM     22  C   UNL     1      26.230  10.252  -9.056  1.00  0.00     0.193 C
BRANCH  22  23
ATOM     23  C   UNL     1      26.840  11.448  -9.856  1.00  0.00     0.009 C
ATOM     24  C   UNL     1      26.591  11.558 -11.358  1.00  0.00     0.011 C
ATOM     25  C   UNL     1      27.943  11.141 -10.865  1.00  0.00     0.011 C
ATOM     26  G   UNL     1      27.023  12.766  -9.095  1.00  0.00     0.000 C
ENDBRANCH  22  23
BRANCH  22  27
ATOM     27  C   UNL     1      24.676  10.197  -9.188  1.00  0.00     0.409 C
ATOM     28  F   UNL     1      24.115  11.398  -8.902  1.00  0.00    -0.169 F
ATOM     29  F   UNL     1      24.275   9.856 -10.434  1.00  0.00    -0.169 F
ATOM     30  F   UNL     1      24.128   9.285  -8.349  1.00  0.00    -0.169 F
ENDBRANCH  22  27
ENDBRANCH  20  22
ENDBRANCH   4  20
BRANCH  10  31
ATOM     31  C   UNL     1      31.593  12.847  -4.252  1.00  0.00     0.093 A
ATOM     32  C   UNL     1      32.093  13.125  -5.519  1.00  0.00     0.035 A
ATOM     33  N   UNL     1      31.554  13.821  -3.315  1.00  0.00    -0.148 NA
ATOM     34  C   UNL     1      32.241  14.456  -5.886  1.00  0.00     0.051 A
ATOM     35  N   UNL     1      31.727  15.130  -3.684  1.00  0.00    -0.132 NA
ATOM     36  C   UNL     1      31.927  15.455  -4.976  1.00  0.00     0.151 A
BRANCH  36  37
ATOM     37  N   UNL     1      31.696  16.756  -5.399  1.00  0.00    -0.349 N
ATOM     38  C   UNL     1      32.411  17.820  -4.691  1.00  0.00     0.134 C
ATOM     39  C   UNL     1      30.532  17.031  -6.276  1.00  0.00     0.108 C
ATOM     40  C   UNL     1      31.475  18.890  -4.191  1.00  0.00     0.158 C
ATOM     41  C   UNL     1      30.675  18.437  -6.855  1.00  0.00     0.162 C
ATOM     42  S   UNL     1      30.675  19.668  -5.573  1.00  0.00     0.154 S
ATOM     43  O   UNL     1      29.292  19.916  -5.206  1.00  0.00    -0.229 OA
ATOM     44  O   UNL     1      31.521  20.757  -6.023  1.00  0.00    -0.229 OA
BRANCH  39  45
ATOM     45  C   UNL     1      29.137  16.851  -5.588  1.00  0.00     0.095 C
BRANCH  45  46
ATOM     46  S   UNL     1      28.239  15.280  -5.948  1.00  0.00    -0.159 SA
BRANCH  46  47
ATOM     47  C   UNL     1      26.603  15.722  -5.301  1.00  0.00     0.079 C
ATOM     48  G   UNL     1      25.808  14.574  -4.667  1.00  0.00     0.000 C
ENDBRANCH  46  47
ENDBRANCH  45  46
ENDBRANCH  39  45
ENDBRANCH  36  37
ENDBRANCH  10  31
TORSDOF 2
ENDMDL
MODEL 6
REMARK VINA RESULT:      -8.0      0.750      1.038
REMARK SMILES NC(=O)c1cnc2c3c1[nH]c1cc(ccc13)-c1ccc(nn1)N1CCS(=O)(=O)C[C@@H]1CSCC1(CC1)[C@H](C(F)(F)F)N2
REMARK SMILES IDX 4 1 5 2 6 3 7 4 8 5 9 6 10 7 11 8 12 9 13 10 14 11 15 12
REMARK SMILES IDX 16 13 2 15 1 16 3 17 42 20 37 22 34 23 35 24 36 25 38 27
REMARK SMILES IDX 39 28 40 29 41 30 17 31 18 32 22 33 19 34 21 35 20 36 23 37
REMARK SMILES IDX 24 38 30 39 25 40 29 41 26 42 27 43 28 44 31 45 32 46 33 47
REMARK H PARENT 10 14 1 18 1 19 42 21
REMARK Flexibility Score:   57.900
ROOT
ATOM      1  C   UNL     1      31.061   9.029  -3.758  1.00  0.00     0.082 A
ATOM      2  C   UNL     1      30.942   7.940  -4.614  1.00  0.00     0.129 A
ATOM      3  N   UNL     1      30.107   7.862  -5.685  1.00  0.00    -0.238 NA
ATOM      4  C   UNL     1      29.291   8.905  -5.968  1.00  0.00     0.136 A
ATOM      5  C   UNL     1      29.231   9.982  -5.058  1.00  0.00     0.051 A
ATOM      6  C   UNL     1      30.174  10.072  -4.037  1.00  0.00     0.065 A
ATOM      7  N   UNL     1      30.056  11.336  -3.491  1.00  0.00    -0.354 N
ATOM      8  C   UNL     1      29.098  12.061  -4.162  1.00  0.00     0.047 A
ATOM      9  C   UNL     1      28.816  13.436  -4.194  1.00  0.00     0.037 A
ATOM     10  C   UNL     1      27.827  13.863  -5.108  1.00  0.00     0.004 A
ATOM     11  C   UNL     1      26.959  12.912  -5.672  1.00  0.00     0.011 A
ATOM     12  C   UNL     1      27.247  11.556  -5.617  1.00  0.00     0.012 A
ATOM     13  C   UNL     1      28.421  11.153  -4.968  1.00  0.00     0.011 A
ATOM     14  H   UNL     1      30.691  11.694  -2.785  1.00  0.00     0.167 HD
ENDROOT
BRANCH   1  15
ATOM     15  C   UNL     1      32.039   9.146  -2.656  1.00  0.00     0.252 C
ATOM     16  N   UNL     1      31.676   8.736  -1.405  1.00  0.00    -0.365 N
ATOM     17  O   UNL     1      33.154   9.616  -2.858  1.00  0.00    -0.269 OA
ATOM     18  H   UNL     1      32.368   8.834  -0.674  1.00  0.00     0.159 HD
ATOM     19  H   UNL     1      30.767   8.385  -1.140  1.00  0.00     0.159 HD
ENDBRANCH   1  15
BRANCH   4  20
ATOM     20  N   UNL     1      28.672   8.895  -7.217  1.00  0.00    -0.358 N
ATOM     21  H   UNL     1      28.920   9.742  -7.724  1.00  0.00     0.162 HD
BRANCH  20  22
ATOM     22  C   UNL     1      27.198   8.594  -7.214  1.00  0.00     0.193 C
BRANCH  22  23
ATOM     23  C   UNL     1      26.942   7.072  -6.968  1.00  0.00     0.009 C
ATOM     24  C   UNL     1      25.593   6.612  -6.422  1.00  0.00     0.011 C
ATOM     25  C   UNL     1      26.792   6.600  -5.525  1.00  0.00     0.011 C
ATOM     26  G   UNL     1      27.680   6.091  -7.885  1.00  0.00     0.000 C
ENDBRANCH  22  23
BRANCH  22  27
ATOM     27  C   UNL     1      26.503   9.098  -8.518  1.00  0.00     0.409 C
ATOM     28  F   UNL     1      25.874  10.282  -8.315  1.00  0.00    -0.169 F
ATOM     29  F   UNL     1      27.379   9.281  -9.532  1.00  0.00    -0.169 F
ATOM     30  F   UNL     1      25.576   8.220  -8.971  1.00  0.00    -0.169 F
ENDBRANCH  22  27
ENDBRANCH  20  22
ENDBRANCH   4  20
BRANCH  10  31
ATOM     31  C   UNL     1      27.891  15.177  -5.786  1.00  0.00     0.093 A
ATOM     32  C   UNL     1      27.217  16.249  -5.214  1.00  0.00     0.035 A
ATOM     33  N   UNL     1      28.983  15.399  -6.553  1.00  0.00    -0.148 NA
ATOM     34  C   UNL     1      27.857  17.482  -5.180  1.00  0.00     0.051 A
ATOM     35  N   UNL     1      29.593  16.626  -6.531  1.00  0.00    -0.132 NA
ATOM     36  C   UNL     1      29.117  17.612  -5.745  1.00  0.00     0.151 A
BRANCH  36  37
ATOM     37  N   UNL     1      29.938  18.681  -5.414  1.00  0.00    -0.349 N
ATOM     38  C   UNL     1      30.167  19.688  -6.452  1.00  0.00     0.134 C
ATOM     39  C   UNL     1      30.786  18.587  -4.200  1.00  0.00     0.108 C
ATOM     40  C   UNL     1      31.636  19.938  -6.680  1.00  0.00     0.158 C
ATOM     41  C   UNL     1      31.336  19.974  -3.878  1.00  0.00     0.162 C
ATOM     42  S   UNL     1      32.362  20.586  -5.194  1.00  0.00     0.154 S
ATOM     43  O   UNL     1      33.675  19.986  -5.040  1.00  0.00    -0.229 OA
ATOM     44  O   UNL     1      32.214  22.029  -5.219  1.00  0.00    -0.229 OA
BRANCH  39  45
ATOM     45  C   UNL     1      31.943  17.535  -4.290  1.00  0.00     0.095 C
BRANCH  45  46
ATOM     46  S   UNL     1      31.786  16.046  -3.213  1.00  0.00    -0.159 SA
BRANCH  46  47
ATOM     47  C   UNL     1      32.797  14.883  -4.169  1.00  0.00     0.079 C
ATOM     48  G   UNL     1      32.222  14.466  -5.528  1.00  0.00     0.000 C
ENDBRANCH  46  47
ENDBRANCH  45  46
ENDBRANCH  39  45
ENDBRANCH  36  37
ENDBRANCH  10  31
TORSDOF 2
ENDMDL
MODEL 7
REMARK VINA RESULT:      -8.0      4.866     10.156
REMARK SMILES NC(=O)c1cnc2c3c1[nH]c1cc(ccc13)-c1ccc(nn1)N1CCS(=O)(=O)C[C@@H]1CSCC1(CC1)[C@H](C(F)(F)F)N2
REMARK SMILES IDX 4 1 5 2 6 3 7 4 8 5 9 6 10 7 11 8 12 9 13 10 14 11 15 12
REMARK SMILES IDX 16 13 2 15 1 16 3 17 42 20 37 22 34 23 35 24 36 25 38 27
REMARK SMILES IDX 39 28 40 29 41 30 17 31 18 32 22 33 19 34 21 35 20 36 23 37
REMARK SMILES IDX 24 38 30 39 25 40 29 41 26 42 27 43 28 44 31 45 32 46 33 47
REMARK H PARENT 10 14 1 18 1 19 42 21
REMARK Flexibility Score:   57.900
ROOT
ATOM      1  C   UNL     1      26.716  19.208  -7.861  1.00  0.00     0.082 A
ATOM      2  C   UNL     1      27.405  20.363  -7.509  1.00  0.00     0.129 A
ATOM      3  N   UNL     1      28.381  20.447  -6.564  1.00  0.00    -0.238 NA
ATOM      4  C   UNL     1      28.730  19.338  -5.870  1.00  0.00     0.136 A
ATOM      5  C   UNL     1      27.970  18.161  -6.050  1.00  0.00     0.051 A
ATOM      6  C   UNL     1      27.056  18.088  -7.097  1.00  0.00     0.065 A
ATOM      7  N   UNL     1      26.676  16.764  -7.207  1.00  0.00    -0.354 N
ATOM      8  C   UNL     1      27.354  15.992  -6.291  1.00  0.00     0.047 A
ATOM      9  C   UNL     1      27.546  14.606  -6.192  1.00  0.00     0.037 A
ATOM     10  C   UNL     1      28.420  14.152  -5.181  1.00  0.00     0.004 A
ATOM     11  C   UNL     1      28.775  15.027  -4.138  1.00  0.00     0.011 A
ATOM     12  C   UNL     1      28.563  16.394  -4.247  1.00  0.00     0.012 A
ATOM     13  C   UNL     1      27.969  16.883  -5.418  1.00  0.00     0.011 A
ATOM     14  H   UNL     1      26.082  16.419  -7.954  1.00  0.00     0.167 HD
ENDROOT
BRANCH   1  15
ATOM     15  C   UNL     1      25.728  19.103  -8.954  1.00  0.00     0.252 C
ATOM     16  N   UNL     1      24.399  19.068  -8.642  1.00  0.00    -0.365 N
ATOM     17  O   UNL     1      26.096  19.035 -10.123  1.00  0.00    -0.269 OA
ATOM     18  H   UNL     1      23.751  18.991  -9.415  1.00  0.00     0.159 HD
ATOM     19  H   UNL     1      24.013  19.068  -7.710  1.00  0.00     0.159 HD
ENDBRANCH   1  15
BRANCH   4  20
ATOM     20  N   UNL     1      29.908  19.408  -5.129  1.00  0.00    -0.358 N
ATOM     21  H   UNL     1      29.886  20.235  -4.536  1.00  0.00     0.162 HD
BRANCH  20  22
ATOM     22  C   UNL     1      31.183  19.251  -5.911  1.00  0.00     0.193 C
BRANCH  22  23
ATOM     23  C   UNL     1      31.783  17.822  -5.714  1.00  0.00     0.009 C
ATOM     24  C   UNL     1      32.710  17.238  -6.778  1.00  0.00     0.011 C
ATOM     25  C   UNL     1      31.312  16.716  -6.653  1.00  0.00     0.011 C
ATOM     26  G   UNL     1      32.030  17.369  -4.270  1.00  0.00     0.000 C
ENDBRANCH  22  23
BRANCH  22  27
ATOM     27  C   UNL     1      32.216  20.369  -5.564  1.00  0.00     0.409 C
ATOM     28  F   UNL     1      32.038  20.828  -4.300  1.00  0.00    -0.169 F
ATOM     29  F   UNL     1      33.495  19.937  -5.654  1.00  0.00    -0.169 F
ATOM     30  F   UNL     1      32.114  21.431  -6.398  1.00  0.00    -0.169 F
ENDBRANCH  22  27
ENDBRANCH  20  22
ENDBRANCH   4  20
BRANCH  10  31
ATOM     31  C   UNL     1      29.272  12.953  -5.349  1.00  0.00     0.093 A
ATOM     32  C   UNL     1      30.618  13.135  -5.645  1.00  0.00     0.035 A
ATOM     33  N   UNL     1      28.872  11.841  -4.692  1.00  0.00    -0.148 NA
ATOM     34  C   UNL     1      31.546  12.338  -4.988  1.00  0.00     0.051 A
ATOM     35  N   UNL     1      29.799  11.047  -4.068  1.00  0.00    -0.132 NA
ATOM     36  C   UNL     1      31.107  11.370  -4.097  1.00  0.00     0.151 A
BRANCH  36  37
ATOM     37  N   UNL     1      31.969  10.824  -3.157  1.00  0.00    -0.349 N
ATOM     38  C   UNL     1      33.216  11.549  -2.901  1.00  0.00     0.134 C
ATOM     39  C   UNL     1      31.765   9.420  -2.724  1.00  0.00     0.108 C
ATOM     40  C   UNL     1      34.423  10.657  -3.040  1.00  0.00     0.158 C
ATOM     41  C   UNL     1      32.613   9.163  -1.481  1.00  0.00     0.162 C
ATOM     42  S   UNL     1      34.344   9.364  -1.825  1.00  0.00     0.154 S
ATOM     43  O   UNL     1      34.812   8.138  -2.446  1.00  0.00    -0.229 OA
ATOM     44  O   UNL     1      34.970   9.855  -0.611  1.00  0.00    -0.229 OA
BRANCH  39  45
ATOM     45  C   UNL     1      32.052   8.347  -3.827  1.00  0.00     0.095 C
BRANCH  45  46
ATOM     46  S   UNL     1      30.674   7.188  -4.226  1.00  0.00    -0.159 SA
BRANCH  46  47
ATOM     47  C   UNL     1      29.924   8.087  -5.611  1.00  0.00     0.079 C
ATOM     48  G   UNL     1      28.983   7.269  -6.503  1.00  0.00     0.000 C
ENDBRANCH  46  47
ENDBRANCH  45  46
ENDBRANCH  39  45
ENDBRANCH  36  37
ENDBRANCH  10  31
TORSDOF 2
ENDMDL
MODEL 8
REMARK VINA RESULT:      -8.0      5.050     10.634
REMARK SMILES NC(=O)c1cnc2c3c1[nH]c1cc(ccc13)-c1ccc(nn1)N1CCS(=O)(=O)C[C@@H]1CSCC1(CC1)[C@H](C(F)(F)F)N2
REMARK SMILES IDX 4 1 5 2 6 3 7 4 8 5 9 6 10 7 11 8 12 9 13 10 14 11 15 12
REMARK SMILES IDX 16 13 2 15 1 16 3 17 42 20 37 22 34 23 35 24 36 25 38 27
REMARK SMILES IDX 39 28 40 29 41 30 17 31 18 32 22 33 19 34 21 35 20 36 23 37
REMARK SMILES IDX 24 38 30 39 25 40 29 41 26 42 27 43 28 44 31 45 32 46 33 47
REMARK H PARENT 10 14 1 18 1 19 42 21
REMARK Flexibility Score:   57.900
ROOT
ATOM      1  C   UNL     1      27.768  20.530  -7.576  1.00  0.00     0.082 A
ATOM      2  C   UNL     1      28.680  21.551  -7.330  1.00  0.00     0.129 A
ATOM      3  N   UNL     1      29.772  21.460  -6.522  1.00  0.00    -0.238 NA
ATOM      4  C   UNL     1      30.020  20.300  -5.869  1.00  0.00     0.136 A
ATOM      5  C   UNL     1      29.058  19.268  -5.935  1.00  0.00     0.051 A
ATOM      6  C   UNL     1      28.015  19.361  -6.852  1.00  0.00     0.065 A
ATOM      7  N   UNL     1      27.408  18.119  -6.898  1.00  0.00    -0.354 N
ATOM      8  C   UNL     1      28.063  17.235  -6.071  1.00  0.00     0.047 A
ATOM      9  C   UNL     1      28.033  15.835  -5.984  1.00  0.00     0.037 A
ATOM     10  C   UNL     1      28.945  15.230  -5.092  1.00  0.00     0.004 A
ATOM     11  C   UNL     1      29.575  16.022  -4.115  1.00  0.00     0.011 A
ATOM     12  C   UNL     1      29.581  17.406  -4.209  1.00  0.00     0.012 A
ATOM     13  C   UNL     1      28.928  18.001  -5.295  1.00  0.00     0.011 A
ATOM     14  H   UNL     1      26.673  17.887  -7.556  1.00  0.00     0.167 HD
ENDROOT
BRANCH   1  15
ATOM     15  C   UNL     1      26.642  20.604  -8.529  1.00  0.00     0.252 C
ATOM     16  N   UNL     1      26.903  20.882  -9.840  1.00  0.00    -0.365 N
ATOM     17  O   UNL     1      25.488  20.432  -8.146  1.00  0.00    -0.269 OA
ATOM     18  H   UNL     1      26.108  20.929 -10.464  1.00  0.00     0.159 HD
ATOM     19  H   UNL     1      27.811  21.085 -10.230  1.00  0.00     0.159 HD
ENDBRANCH   1  15
BRANCH   4  20
ATOM     20  N   UNL     1      31.281  20.164  -5.290  1.00  0.00    -0.358 N
ATOM     21  H   UNL     1      31.476  20.978  -4.712  1.00  0.00     0.162 HD
BRANCH  20  22
ATOM     22  C   UNL     1      32.397  19.802  -6.231  1.00  0.00     0.193 C
BRANCH  22  23
ATOM     23  C   UNL     1      32.791  18.298  -6.071  1.00  0.00     0.009 C
ATOM     24  C   UNL     1      33.444  17.560  -7.238  1.00  0.00     0.011 C
ATOM     25  C   UNL     1      32.017  17.268  -6.889  1.00  0.00     0.011 C
ATOM     26  G   UNL     1      33.180  17.832  -4.664  1.00  0.00     0.000 C
ENDBRANCH  22  23
BRANCH  22  27
ATOM     27  C   UNL     1      33.627  20.748  -6.061  1.00  0.00     0.409 C
ATOM     28  F   UNL     1      33.967  20.882  -4.755  1.00  0.00    -0.169 F
ATOM     29  F   UNL     1      34.722  20.293  -6.713  1.00  0.00    -0.169 F
ATOM     30  F   UNL     1      33.383  21.989  -6.546  1.00  0.00    -0.169 F
ENDBRANCH  22  27
ENDBRANCH  20  22
ENDBRANCH   4  20
BRANCH  10  31
ATOM     31  C   UNL     1      29.556  13.908  -5.359  1.00  0.00     0.093 A
ATOM     32  C   UNL     1      30.924  13.848  -5.592  1.00  0.00     0.035 A
ATOM     33  N   UNL     1      28.915  12.839  -4.834  1.00  0.00    -0.148 NA
ATOM     34  C   UNL     1      31.647  12.824  -4.995  1.00  0.00     0.051 A
ATOM     35  N   UNL     1      29.637  11.821  -4.269  1.00  0.00    -0.132 NA
ATOM     36  C   UNL     1      30.983  11.880  -4.224  1.00  0.00     0.151 A
BRANCH  36  37
ATOM     37  N   UNL     1      31.674  11.086  -3.320  1.00  0.00    -0.349 N
ATOM     38  C   UNL     1      33.014  11.533  -2.935  1.00  0.00     0.134 C
ATOM     39  C   UNL     1      31.193   9.707  -3.060  1.00  0.00     0.108 C
ATOM     40  C   UNL     1      34.046  10.451  -3.128  1.00  0.00     0.158 C
ATOM     41  C   UNL     1      31.905   9.165  -1.823  1.00  0.00     0.162 C
ATOM     42  S   UNL     1      33.662   9.074  -2.074  1.00  0.00     0.154 S
ATOM     43  O   UNL     1      33.935   7.855  -2.814  1.00  0.00    -0.229 OA
ATOM     44  O   UNL     1      34.293   9.308  -0.788  1.00  0.00    -0.229 OA
BRANCH  39  45
ATOM     45  C   UNL     1      31.346   8.722  -4.268  1.00  0.00     0.095 C
BRANCH  45  46
ATOM     46  S   UNL     1      29.861   8.495  -5.337  1.00  0.00    -0.159 SA
BRANCH  46  47
ATOM     47  C   UNL     1      29.700   6.691  -5.239  1.00  0.00     0.079 C
ATOM     48  G   UNL     1      28.291   6.136  -5.473  1.00  0.00     0.000 C
ENDBRANCH  46  47
ENDBRANCH  45  46
ENDBRANCH  39  45
ENDBRANCH  36  37
ENDBRANCH  10  31
TORSDOF 2
ENDMDL
MODEL 9
REMARK VINA RESULT:      -7.9      2.529      4.280
REMARK SMILES NC(=O)c1cnc2c3c1[nH]c1cc(ccc13)-c1ccc(nn1)N1CCS(=O)(=O)C[C@@H]1CSCC1(CC1)[C@H](C(F)(F)F)N2
REMARK SMILES IDX 4 1 5 2 6 3 7 4 8 5 9 6 10 7 11 8 12 9 13 10 14 11 15 12
REMARK SMILES IDX 16 13 2 15 1 16 3 17 42 20 37 22 34 23 35 24 36 25 38 27
REMARK SMILES IDX 39 28 40 29 41 30 17 31 18 32 22 33 19 34 21 35 20 36 23 37
REMARK SMILES IDX 24 38 30 39 25 40 29 41 26 42 27 43 28 44 31 45 32 46 33 47
REMARK H PARENT 10 14 1 18 1 19 42 21
REMARK Flexibility Score:   57.900
ROOT
ATOM      1  C   UNL     1      28.695   6.319  -7.229  1.00  0.00     0.082 A
ATOM      2  C   UNL     1      28.122   6.366  -8.495  1.00  0.00     0.129 A
ATOM      3  N   UNL     1      27.676   7.488  -9.122  1.00  0.00    -0.238 NA
ATOM      4  C   UNL     1      27.763   8.682  -8.488  1.00  0.00     0.136 A
ATOM      5  C   UNL     1      28.182   8.702  -7.139  1.00  0.00     0.051 A
ATOM      6  C   UNL     1      28.727   7.553  -6.573  1.00  0.00     0.065 A
ATOM      7  N   UNL     1      29.297   7.928  -5.371  1.00  0.00    -0.354 N
ATOM      8  C   UNL     1      29.165   9.285  -5.182  1.00  0.00     0.047 A
ATOM      9  C   UNL     1      29.804  10.175  -4.304  1.00  0.00     0.037 A
ATOM     10  C   UNL     1      29.520  11.548  -4.467  1.00  0.00     0.004 A
ATOM     11  C   UNL     1      28.400  11.930  -5.229  1.00  0.00     0.011 A
ATOM     12  C   UNL     1      27.772  11.032  -6.079  1.00  0.00     0.012 A
ATOM     13  C   UNL     1      28.270   9.725  -6.150  1.00  0.00     0.011 A
ATOM     14  H   UNL     1      29.843   7.296  -4.797  1.00  0.00     0.167 HD
ENDROOT
BRANCH   1  15
ATOM     15  C   UNL     1      29.265   5.113  -6.594  1.00  0.00     0.252 C
ATOM     16  N   UNL     1      30.142   4.345  -7.305  1.00  0.00    -0.365 N
ATOM     17  O   UNL     1      28.947   4.799  -5.451  1.00  0.00    -0.269 OA
ATOM     18  H   UNL     1      30.510   3.524  -6.842  1.00  0.00     0.159 HD
ATOM     19  H   UNL     1      30.419   4.500  -8.263  1.00  0.00     0.159 HD
ENDBRANCH   1  15
BRANCH   4  20
ATOM     20  N   UNL     1      27.562   9.820  -9.266  1.00  0.00    -0.358 N
ATOM     21  H   UNL     1      27.696  10.650  -8.693  1.00  0.00     0.162 HD
BRANCH  20  22
ATOM     22  C   UNL     1      26.298   9.841 -10.082  1.00  0.00     0.193 C
BRANCH  22  23
ATOM     23  C   UNL     1      26.515  10.617 -11.421  1.00  0.00     0.009 C
ATOM     24  C   UNL     1      25.850  10.116 -12.701  1.00  0.00     0.011 C
ATOM     25  C   UNL     1      27.325   9.933 -12.518  1.00  0.00     0.011 C
ATOM     26  G   UNL     1      26.738  12.130 -11.314  1.00  0.00     0.000 C
ENDBRANCH  22  23
BRANCH  22  27
ATOM     27  C   UNL     1      25.094  10.408  -9.268  1.00  0.00     0.409 C
ATOM     28  F   UNL     1      24.099  10.828 -10.089  1.00  0.00    -0.169 F
ATOM     29  F   UNL     1      24.558   9.490  -8.430  1.00  0.00    -0.169 F
ATOM     30  F   UNL     1      25.454  11.462  -8.497  1.00  0.00    -0.169 F
ENDBRANCH  22  27
ENDBRANCH  20  22
ENDBRANCH   4  20
BRANCH  10  31
ATOM     31  C   UNL     1      30.526  12.603  -4.207  1.00  0.00     0.093 A
ATOM     32  C   UNL     1      31.497  12.842  -5.172  1.00  0.00     0.035 A
ATOM     33  N   UNL     1      30.144  13.598  -3.375  1.00  0.00    -0.148 NA
ATOM     34  C   UNL     1      31.817  14.161  -5.466  1.00  0.00     0.051 A
ATOM     35  N   UNL     1      30.486  14.894  -3.660  1.00  0.00    -0.132 NA
ATOM     36  C   UNL     1      31.195  15.186  -4.769  1.00  0.00     0.151 A
BRANCH  36  37
ATOM     37  N   UNL     1      31.189  16.482  -5.264  1.00  0.00    -0.349 N
ATOM     38  C   UNL     1      32.258  17.372  -4.806  1.00  0.00     0.134 C
ATOM     39  C   UNL     1      29.966  16.990  -5.932  1.00  0.00     0.108 C
ATOM     40  C   UNL     1      31.715  18.662  -4.246  1.00  0.00     0.158 C
ATOM     41  C   UNL     1      30.308  18.289  -6.659  1.00  0.00     0.162 C
ATOM     42  S   UNL     1      30.851  19.543  -5.524  1.00  0.00     0.154 S
ATOM     43  O   UNL     1      29.667  20.140  -4.932  1.00  0.00    -0.229 OA
ATOM     44  O   UNL     1      31.816  20.370  -6.225  1.00  0.00    -0.229 OA
BRANCH  39  45
ATOM     45  C   UNL     1      28.737  17.191  -4.983  1.00  0.00     0.095 C
BRANCH  45  46
ATOM     46  S   UNL     1      27.069  17.110  -5.768  1.00  0.00    -0.159 SA
BRANCH  46  47
ATOM     47  C   UNL     1      26.849  15.310  -5.808  1.00  0.00     0.079 C
ATOM     48  G   UNL     1      26.086  14.708  -4.623  1.00  0.00     0.000 C
ENDBRANCH  46  47
ENDBRANCH  45  46
ENDBRANCH  39  45
ENDBRANCH  36  37
ENDBRANCH  10  31
TORSDOF 2
ENDMDL
