MODEL 1
REMARK VINA RESULT:      -8.8      0.000      0.000
REMARK SMILES N#C[C@H]1CCN(C(=O)[C@@H]2NC(=O)c3c[nH]c4ncc(nc34)C3(CCC[C@H]4C[C@@H]42)CC3)C1
REMARK SMILES IDX 10 1 11 2 12 3 9 5 7 6 8 7 6 8 1 9 2 10 3 11 4 12 31 13 5 14
REMARK SMILES IDX 28 15 27 16 26 17 25 18 24 19 13 21 14 22 21 23 15 24 20 25
REMARK SMILES IDX 16 26 19 27 17 28 18 29 22 31 29 32 30 33 23 34
REMARK H PARENT 10 4 15 30
REMARK Flexibility Score:   57.900
ROOT
ATOM      1  N   UNL     1      31.558  14.999  -4.575  1.00  0.00    -0.340 N
ATOM      2  C   UNL     1      32.007  15.348  -3.327  1.00  0.00     0.255 C
ATOM      3  O   UNL     1      31.362  16.041  -2.548  1.00  0.00    -0.269 OA
ATOM      4  H   UNL     1      32.179  14.461  -5.173  1.00  0.00     0.164 HD
ENDROOT
BRANCH   1   5
ATOM      5  C   UNL     1      30.272  15.392  -5.103  1.00  0.00     0.175 C
BRANCH   5   6
ATOM      6  C   UNL     1      30.496  16.313  -6.333  1.00  0.00     0.245 C
ATOM      7  O   UNL     1      29.716  16.329  -7.291  1.00  0.00    -0.272 OA
BRANCH   6   8
ATOM      8  N   UNL     1      31.592  17.156  -6.304  1.00  0.00    -0.340 N
ATOM      9  N   UNL     1      33.833  21.061  -4.887  1.00  0.00    -0.198 NA
ATOM     10  C   UNL     1      33.475  20.157  -5.520  1.00  0.00     0.067 C
ATOM     11  C   UNL     1      33.016  19.030  -6.330  1.00  0.00     0.114 C
ATOM     12  C   UNL     1      33.855  17.768  -6.131  1.00  0.00     0.042 C
ATOM     13  C   UNL     1      31.619  18.563  -5.933  1.00  0.00     0.138 C
ATOM     14  C   UNL     1      32.923  16.665  -6.610  1.00  0.00     0.121 C
ENDBRANCH   6   8
ENDBRANCH   5   6
BRANCH   5  15
ATOM     15  C   UNL     1      29.514  14.110  -5.393  1.00  0.00     0.024 C
ATOM     16  C   UNL     1      29.260  13.032  -4.365  1.00  0.00     0.010 C
ATOM     17  C   UNL     1      28.115  13.889  -4.849  1.00  0.00    -0.005 C
BRANCH  17  18
ATOM     18  C   UNL     1      27.023  13.282  -5.685  1.00  0.00     0.004 C
BRANCH  18  19
ATOM     19  C   UNL     1      25.899  14.281  -5.995  1.00  0.00     0.001 C
ATOM     20  G   UNL     1      26.209  15.143  -7.227  1.00  0.00     0.000 C
ENDBRANCH  18  19
ENDBRANCH  17  18
ENDBRANCH   5  15
ENDBRANCH   1   5
BRANCH   2  21
ATOM     21  C   UNL     1      33.325  14.810  -3.019  1.00  0.00     0.085 A
ATOM     22  C   UNL     1      34.494  15.531  -2.813  1.00  0.00     0.100 A
ATOM     23  C   UNL     1      33.673  13.444  -2.853  1.00  0.00     0.120 A
ATOM     24  N   UNL     1      35.514  14.643  -2.557  1.00  0.00    -0.344 N
ATOM     25  N   UNL     1      32.887  12.341  -2.925  1.00  0.00    -0.246 NA
ATOM     26  C   UNL     1      35.026  13.365  -2.572  1.00  0.00     0.156 A
ATOM     27  C   UNL     1      33.506  11.161  -2.686  1.00  0.00     0.066 A
ATOM     28  N   UNL     1      35.718  12.233  -2.352  1.00  0.00    -0.235 NA
ATOM     29  C   UNL     1      34.890  11.148  -2.423  1.00  0.00     0.138 A
ATOM     30  H   UNL     1      36.480  14.876  -2.375  1.00  0.00     0.168 HD
BRANCH  27  31
ATOM     31  C   UNL     1      32.617   9.895  -2.694  1.00  0.00     0.014 C
ATOM     32  C   UNL     1      32.629   8.984  -1.471  1.00  0.00     0.014 C
ATOM     33  C   UNL     1      33.267   8.521  -2.746  1.00  0.00     0.014 C
BRANCH  31  34
ATOM     34  C   UNL     1      31.259  10.056  -3.395  1.00  0.00     0.013 C
ATOM     35  G   UNL     1      30.969   8.932  -4.399  1.00  0.00     0.000 C
ENDBRANCH  31  34
ENDBRANCH  27  31
ENDBRANCH   2  21
TORSDOF 2
ENDMDL
MODEL 2
REMARK VINA RESULT:      -8.7      0.892      1.292
REMARK SMILES N#C[C@H]1CCN(C(=O)[C@@H]2NC(=O)c3c[nH]c4ncc(nc34)C3(CCC[C@H]4C[C@@H]42)CC3)C1
REMARK SMILES IDX 10 1 11 2 12 3 9 5 7 6 8 7 6 8 1 9 2 10 3 11 4 12 31 13 5 14
REMARK SMILES IDX 28 15 27 16 26 17 25 18 24 19 13 21 14 22 21 23 15 24 20 25
REMARK SMILES IDX 16 26 19 27 17 28 18 29 22 31 29 32 30 33 23 34
REMARK H PARENT 10 4 15 30
REMARK Flexibility Score:   57.900
ROOT
ATOM      1  N   UNL     1      31.403  14.935  -4.609  1.00  0.00    -0.340 N
ATOM      2  C   UNL     1      31.813  15.193  -3.327  1.00  0.00     0.255 C
ATOM      3  O   UNL     1      31.128  15.794  -2.508  1.00  0.00    -0.269 OA
ATOM      4  H   UNL     1      32.056  14.472  -5.236  1.00  0.00     0.164 HD
ENDROOT
BRANCH   1   5
ATOM      5  C   UNL     1      30.115  15.327  -5.134  1.00  0.00     0.175 C
BRANCH   5   6
ATOM      6  C   UNL     1      30.323  16.453  -6.184  1.00  0.00     0.245 C
ATOM      7  O   UNL     1      29.732  16.455  -7.268  1.00  0.00    -0.272 OA
BRANCH   6   8
ATOM      8  N   UNL     1      31.175  17.488  -5.844  1.00  0.00    -0.340 N
ATOM      9  N   UNL     1      34.691  20.495  -6.780  1.00  0.00    -0.198 NA
ATOM     10  C   UNL     1      33.960  19.783  -6.229  1.00  0.00     0.067 C
ATOM     11  C   UNL     1      33.052  18.874  -5.531  1.00  0.00     0.114 C
ATOM     12  C   UNL     1      31.814  19.576  -4.972  1.00  0.00     0.042 C
ATOM     13  C   UNL     1      32.446  17.831  -6.465  1.00  0.00     0.138 C
ATOM     14  C   UNL     1      30.829  18.430  -4.795  1.00  0.00     0.121 C
ENDBRANCH   6   8
ENDBRANCH   5   6
BRANCH   5  15
ATOM     15  C   UNL     1      29.465  14.066  -5.668  1.00  0.00     0.024 C
ATOM     16  C   UNL     1      29.481  12.739  -4.945  1.00  0.00     0.010 C
ATOM     17  C   UNL     1      28.193  13.519  -5.047  1.00  0.00    -0.005 C
BRANCH  17  18
ATOM     18  C   UNL     1      27.061  12.993  -5.885  1.00  0.00     0.004 C
BRANCH  18  19
ATOM     19  C   UNL     1      27.286  11.539  -6.325  1.00  0.00     0.001 C
ATOM     20  G   UNL     1      26.822  11.286  -7.766  1.00  0.00     0.000 C
ENDBRANCH  18  19
ENDBRANCH  17  18
ENDBRANCH   5  15
ENDBRANCH   1   5
BRANCH   2  21
ATOM     21  C   UNL     1      33.143  14.676  -3.033  1.00  0.00     0.085 A
ATOM     22  C   UNL     1      34.298  15.417  -2.817  1.00  0.00     0.100 A
ATOM     23  C   UNL     1      33.520  13.315  -2.895  1.00  0.00     0.120 A
ATOM     24  N   UNL     1      35.337  14.545  -2.582  1.00  0.00    -0.344 N
ATOM     25  N   UNL     1      32.757  12.197  -2.986  1.00  0.00    -0.246 NA
ATOM     26  C   UNL     1      34.875  13.258  -2.620  1.00  0.00     0.156 A
ATOM     27  C   UNL     1      33.400  11.026  -2.772  1.00  0.00     0.066 A
ATOM     28  N   UNL     1      35.591  12.137  -2.424  1.00  0.00    -0.235 NA
ATOM     29  C   UNL     1      34.785  11.036  -2.513  1.00  0.00     0.138 A
ATOM     30  H   UNL     1      36.298  14.795  -2.398  1.00  0.00     0.168 HD
BRANCH  27  31
ATOM     31  C   UNL     1      32.538   9.743  -2.801  1.00  0.00     0.014 C
ATOM     32  C   UNL     1      32.315   8.980  -1.500  1.00  0.00     0.014 C
ATOM     33  C   UNL     1      33.194   8.391  -2.563  1.00  0.00     0.014 C
BRANCH  31  34
ATOM     34  C   UNL     1      31.343   9.782  -3.766  1.00  0.00     0.013 C
ATOM     35  G   UNL     1      30.986   8.400  -4.331  1.00  0.00     0.000 C
ENDBRANCH  31  34
ENDBRANCH  27  31
ENDBRANCH   2  21
TORSDOF 2
ENDMDL
MODEL 3
REMARK VINA RESULT:      -8.4      1.884      5.198
REMARK SMILES N#C[C@H]1CCN(C(=O)[C@@H]2NC(=O)c3c[nH]c4ncc(nc34)C3(CCC[C@H]4C[C@@H]42)CC3)C1
REMARK SMILES IDX 10 1 11 2 12 3 9 5 7 6 8 7 6 8 1 9 2 10 3 11 4 12 31 13 5 14
REMARK SMILES IDX 28 15 27 16 26 17 25 18 24 19 13 21 14 22 21 23 15 24 20 25
REMARK SMILES IDX 16 26 19 27 17 28 18 29 22 31 29 32 30 33 23 34
REMARK H PARENT 10 4 15 30
REMARK Flexibility Score:   57.900
ROOT
ATOM      1  N   UNL     1      31.327  14.794  -4.649  1.00  0.00    -0.340 N
ATOM      2  C   UNL     1      30.462  14.938  -5.703  1.00  0.00     0.255 C
ATOM      3  O   UNL     1      30.624  15.759  -6.599  1.00  0.00    -0.269 OA
ATOM      4  H   UNL     1      31.090  14.120  -3.925  1.00  0.00     0.164 HD
ENDROOT
BRANCH   1   5
ATOM      5  C   UNL     1      32.530  15.577  -4.484  1.00  0.00     0.175 C
BRANCH   5   6
ATOM      6  C   UNL     1      32.147  17.082  -4.453  1.00  0.00     0.245 C
ATOM      7  O   UNL     1      31.286  17.524  -3.685  1.00  0.00    -0.272 OA
BRANCH   6   8
ATOM      8  N   UNL     1      32.840  17.931  -5.297  1.00  0.00    -0.340 N
ATOM      9  N   UNL     1      34.912  22.047  -6.317  1.00  0.00    -0.198 NA
ATOM     10  C   UNL     1      34.335  21.045  -6.408  1.00  0.00     0.067 C
ATOM     11  C   UNL     1      33.595  19.790  -6.528  1.00  0.00     0.114 C
ATOM     12  C   UNL     1      34.491  18.591  -6.834  1.00  0.00     0.042 C
ATOM     13  C   UNL     1      32.934  19.381  -5.214  1.00  0.00     0.138 C
ATOM     14  C   UNL     1      33.639  17.411  -6.392  1.00  0.00     0.121 C
ENDBRANCH   6   8
ENDBRANCH   5   6
BRANCH   5  15
ATOM     15  C   UNL     1      33.211  15.063  -3.230  1.00  0.00     0.024 C
ATOM     16  C   UNL     1      32.702  13.899  -2.412  1.00  0.00     0.010 C
ATOM     17  C   UNL     1      33.960  13.743  -3.233  1.00  0.00    -0.005 C
BRANCH  17  18
ATOM     18  C   UNL     1      35.288  13.581  -2.548  1.00  0.00     0.004 C
BRANCH  18  19
ATOM     19  C   UNL     1      35.166  12.847  -1.204  1.00  0.00     0.001 C
ATOM     20  G   UNL     1      36.119  11.648  -1.106  1.00  0.00     0.000 C
ENDBRANCH  18  19
ENDBRANCH  17  18
ENDBRANCH   5  15
ENDBRANCH   1   5
BRANCH   2  21
ATOM     21  C   UNL     1      29.336  14.017  -5.654  1.00  0.00     0.085 A
ATOM     22  C   UNL     1      28.034  14.265  -6.071  1.00  0.00     0.100 A
ATOM     23  C   UNL     1      29.347  12.677  -5.184  1.00  0.00     0.120 A
ATOM     24  N   UNL     1      27.281  13.136  -5.843  1.00  0.00    -0.344 N
ATOM     25  N   UNL     1      30.379  11.946  -4.694  1.00  0.00    -0.246 NA
ATOM     26  C   UNL     1      28.071  12.156  -5.307  1.00  0.00     0.156 A
ATOM     27  C   UNL     1      30.085  10.670  -4.352  1.00  0.00     0.066 A
ATOM     28  N   UNL     1      27.694  10.912  -4.964  1.00  0.00    -0.235 NA
ATOM     29  C   UNL     1      28.762  10.206  -4.486  1.00  0.00     0.138 A
ATOM     30  H   UNL     1      26.297  13.023  -6.041  1.00  0.00     0.168 HD
BRANCH  27  31
ATOM     31  C   UNL     1      31.260   9.795  -3.856  1.00  0.00     0.014 C
ATOM     32  C   UNL     1      31.268   8.311  -4.208  1.00  0.00     0.014 C
ATOM     33  C   UNL     1      31.011   8.735  -2.793  1.00  0.00     0.014 C
BRANCH  31  34
ATOM     34  C   UNL     1      32.632  10.487  -3.849  1.00  0.00     0.013 C
ATOM     35  G   UNL     1      33.493  10.092  -2.642  1.00  0.00     0.000 C
ENDBRANCH  31  34
ENDBRANCH  27  31
ENDBRANCH   2  21
TORSDOF 2
ENDMDL
MODEL 4
REMARK VINA RESULT:      -8.2      2.354      7.789
REMARK SMILES N#C[C@H]1CCN(C(=O)[C@@H]2NC(=O)c3c[nH]c4ncc(nc34)C3(CCC[C@H]4C[C@@H]42)CC3)C1
REMARK SMILES IDX 10 1 11 2 12 3 9 5 7 6 8 7 6 8 1 9 2 10 3 11 4 12 31 13 5 14
REMARK SMILES IDX 28 15 27 16 26 17 25 18 24 19 13 21 14 22 21 23 15 24 20 25
REMARK SMILES IDX 16 26 19 27 17 28 18 29 22 31 29 32 30 33 23 34
REMARK H PARENT 10 4 15 30
REMARK Flexibility Score:   57.900
ROOT
ATOM      1  N   UNL     1      31.992  16.352  -4.881  1.00  0.00    -0.340 N
ATOM      2  C   UNL     1      32.611  17.004  -5.917  1.00  0.00     0.255 C
ATOM      3  O   UNL     1      33.176  16.423  -6.837  1.00  0.00    -0.269 OA
ATOM      4  H   UNL     1      31.590  16.914  -4.135  1.00  0.00     0.164 HD
ENDROOT
BRANCH   1   5
ATOM      5  C   UNL     1      31.920  14.914  -4.767  1.00  0.00     0.175 C
BRANCH   5   6
ATOM      6  C   UNL     1      32.942  14.445  -3.695  1.00  0.00     0.245 C
ATOM      7  O   UNL     1      33.510  15.239  -2.940  1.00  0.00    -0.272 OA
BRANCH   6   8
ATOM      8  N   UNL     1      33.169  13.085  -3.587  1.00  0.00    -0.340 N
ATOM      9  N   UNL     1      34.614   9.257  -1.233  1.00  0.00    -0.198 NA
ATOM     10  C   UNL     1      34.378  10.012  -2.082  1.00  0.00     0.067 C
ATOM     11  C   UNL     1      34.097  10.966  -3.154  1.00  0.00     0.114 C
ATOM     12  C   UNL     1      32.710  10.786  -3.768  1.00  0.00     0.042 C
ATOM     13  C   UNL     1      34.052  12.405  -2.650  1.00  0.00     0.138 C
ATOM     14  C   UNL     1      32.453  12.136  -4.421  1.00  0.00     0.121 C
ENDBRANCH   6   8
ENDBRANCH   5   6
BRANCH   5  15
ATOM     15  C   UNL     1      30.473  14.577  -4.463  1.00  0.00     0.024 C
ATOM     16  C   UNL     1      29.336  15.566  -4.579  1.00  0.00     0.010 C
ATOM     17  C   UNL     1      29.452  14.438  -5.577  1.00  0.00    -0.005 C
BRANCH  17  18
ATOM     18  C   UNL     1      28.430  13.336  -5.587  1.00  0.00     0.004 C
BRANCH  18  19
ATOM     19  C   UNL     1      27.178  13.708  -6.394  1.00  0.00     0.001 C
ATOM     20  G   UNL     1      25.954  13.945  -5.498  1.00  0.00     0.000 C
ENDBRANCH  18  19
ENDBRANCH  17  18
ENDBRANCH   5  15
ENDBRANCH   1   5
BRANCH   2  21
ATOM     21  C   UNL     1      32.527  18.454  -5.816  1.00  0.00     0.085 A
ATOM     22  C   UNL     1      33.555  19.330  -5.488  1.00  0.00     0.100 A
ATOM     23  C   UNL     1      31.384  19.262  -6.049  1.00  0.00     0.120 A
ATOM     24  N   UNL     1      33.054  20.611  -5.496  1.00  0.00    -0.344 N
ATOM     25  N   UNL     1      30.132  18.896  -6.421  1.00  0.00    -0.246 NA
ATOM     26  C   UNL     1      31.731  20.586  -5.842  1.00  0.00     0.156 A
ATOM     27  C   UNL     1      29.251  19.907  -6.598  1.00  0.00     0.066 A
ATOM     28  N   UNL     1      30.908  21.643  -5.969  1.00  0.00    -0.235 NA
ATOM     29  C   UNL     1      29.663  21.233  -6.355  1.00  0.00     0.138 A
ATOM     30  H   UNL     1      33.567  21.457  -5.289  1.00  0.00     0.168 HD
BRANCH  27  31
ATOM     31  C   UNL     1      27.837  19.520  -7.091  1.00  0.00     0.014 C
ATOM     32  C   UNL     1      27.226  20.300  -8.250  1.00  0.00     0.014 C
ATOM     33  C   UNL     1      26.676  20.477  -6.867  1.00  0.00     0.014 C
BRANCH  31  34
ATOM     34  C   UNL     1      27.524  18.016  -7.058  1.00  0.00     0.013 C
ATOM     35  G   UNL     1      26.699  17.605  -5.831  1.00  0.00     0.000 C
ENDBRANCH  31  34
ENDBRANCH  27  31
ENDBRANCH   2  21
TORSDOF 2
ENDMDL
MODEL 5
REMARK VINA RESULT:      -8.1      2.252      8.512
REMARK SMILES N#C[C@H]1CCN(C(=O)[C@@H]2NC(=O)c3c[nH]c4ncc(nc34)C3(CCC[C@H]4C[C@@H]42)CC3)C1
REMARK SMILES IDX 10 1 11 2 12 3 9 5 7 6 8 7 6 8 1 9 2 10 3 11 4 12 31 13 5 14
REMARK SMILES IDX 28 15 27 16 26 17 25 18 24 19 13 21 14 22 21 23 15 24 20 25
REMARK SMILES IDX 16 26 19 27 17 28 18 29 22 31 29 32 30 33 23 34
REMARK H PARENT 10 4 15 30
REMARK Flexibility Score:   57.900
ROOT
ATOM      1  N   UNL     1      30.858  14.459  -4.443  1.00  0.00    -0.340 N
ATOM      2  C   UNL     1      29.539  14.535  -4.077  1.00  0.00     0.255 C
ATOM      3  O   UNL     1      29.021  13.783  -3.258  1.00  0.00    -0.269 OA
ATOM      4  H   UNL     1      31.191  15.092  -5.165  1.00  0.00     0.164 HD
ENDROOT
BRANCH   1   5
ATOM      5  C   UNL     1      31.788  13.499  -3.894  1.00  0.00     0.175 C
BRANCH   5   6
ATOM      6  C   UNL     1      31.877  12.282  -4.855  1.00  0.00     0.245 C
ATOM      7  O   UNL     1      32.073  12.417  -6.067  1.00  0.00    -0.272 OA
BRANCH   6   8
ATOM      8  N   UNL     1      31.768  11.022  -4.296  1.00  0.00    -0.340 N
ATOM      9  N   UNL     1      30.564   6.461  -4.456  1.00  0.00    -0.198 NA
ATOM     10  C   UNL     1      30.770   7.539  -4.082  1.00  0.00     0.067 C
ATOM     11  C   UNL     1      31.014   8.901  -3.608  1.00  0.00     0.114 C
ATOM     12  C   UNL     1      32.439   9.113  -3.098  1.00  0.00     0.042 C
ATOM     13  C   UNL     1      30.907   9.931  -4.728  1.00  0.00     0.138 C
ATOM     14  C   UNL     1      32.603  10.623  -3.177  1.00  0.00     0.121 C
ENDBRANCH   6   8
ENDBRANCH   5   6
BRANCH   5  15
ATOM     15  C   UNL     1      33.093  14.239  -3.675  1.00  0.00     0.024 C
ATOM     16  C   UNL     1      33.265  15.367  -2.684  1.00  0.00     0.010 C
ATOM     17  C   UNL     1      33.909  14.029  -2.413  1.00  0.00    -0.005 C
BRANCH  17  18
ATOM     18  C   UNL     1      35.406  13.896  -2.447  1.00  0.00     0.004 C
BRANCH  18  19
ATOM     19  C   UNL     1      35.867  12.439  -2.294  1.00  0.00     0.001 C
ATOM     20  G   UNL     1      35.938  12.000  -0.824  1.00  0.00     0.000 C
ENDBRANCH  18  19
ENDBRANCH  17  18
ENDBRANCH   5  15
ENDBRANCH   1   5
BRANCH   2  21
ATOM     21  C   UNL     1      28.814  15.601  -4.755  1.00  0.00     0.085 A
ATOM     22  C   UNL     1      27.450  15.654  -5.009  1.00  0.00     0.100 A
ATOM     23  C   UNL     1      29.356  16.805  -5.278  1.00  0.00     0.120 A
ATOM     24  N   UNL     1      27.176  16.825  -5.679  1.00  0.00    -0.344 N
ATOM     25  N   UNL     1      30.638  17.249  -5.263  1.00  0.00    -0.246 NA
ATOM     26  C   UNL     1      28.330  17.540  -5.844  1.00  0.00     0.156 A
ATOM     27  C   UNL     1      30.845  18.465  -5.819  1.00  0.00     0.066 A
ATOM     28  N   UNL     1      28.459  18.740  -6.439  1.00  0.00    -0.235 NA
ATOM     29  C   UNL     1      29.760  19.156  -6.393  1.00  0.00     0.138 A
ATOM     30  H   UNL     1      26.270  17.134  -6.000  1.00  0.00     0.168 HD
BRANCH  27  31
ATOM     31  C   UNL     1      32.285  19.024  -5.752  1.00  0.00     0.014 C
ATOM     32  C   UNL     1      32.563  20.229  -4.859  1.00  0.00     0.014 C
ATOM     33  C   UNL     1      32.590  20.390  -6.349  1.00  0.00     0.014 C
BRANCH  31  34
ATOM     34  C   UNL     1      33.399  17.967  -5.813  1.00  0.00     0.013 C
ATOM     35  G   UNL     1      33.642  17.439  -7.234  1.00  0.00     0.000 C
ENDBRANCH  31  34
ENDBRANCH  27  31
ENDBRANCH   2  21
TORSDOF 2
ENDMDL
MODEL 6
REMARK VINA RESULT:      -8.1      2.320      8.000
REMARK SMILES N#C[C@H]1CCN(C(=O)[C@@H]2NC(=O)c3c[nH]c4ncc(nc34)C3(CCC[C@H]4C[C@@H]42)CC3)C1
REMARK SMILES IDX 10 1 11 2 12 3 9 5 7 6 8 7 6 8 1 9 2 10 3 11 4 12 31 13 5 14
REMARK SMILES IDX 28 15 27 16 26 17 25 18 24 19 13 21 14 22 21 23 15 24 20 25
REMARK SMILES IDX 16 26 19 27 17 28 18 29 22 31 29 32 30 33 23 34
REMARK H PARENT 10 4 15 30
REMARK Flexibility Score:   57.900
ROOT
ATOM      1  N   UNL     1      29.575  15.937  -6.020  1.00  0.00    -0.340 N
ATOM      2  C   UNL     1      28.699  16.237  -7.031  1.00  0.00     0.255 C
ATOM      3  O   UNL     1      28.426  15.461  -7.939  1.00  0.00    -0.269 OA
ATOM      4  H   UNL     1      29.779  16.659  -5.334  1.00  0.00     0.164 HD
ENDROOT
BRANCH   1   5
ATOM      5  C   UNL     1      30.261  14.671  -5.903  1.00  0.00     0.175 C
BRANCH   5   6
ATOM      6  C   UNL     1      31.757  14.939  -5.581  1.00  0.00     0.245 C
ATOM      7  O   UNL     1      32.416  15.789  -6.187  1.00  0.00    -0.272 OA
BRANCH   6   8
ATOM      8  N   UNL     1      32.324  14.211  -4.551  1.00  0.00    -0.340 N
ATOM      9  N   UNL     1      34.687  10.490  -2.862  1.00  0.00    -0.198 NA
ATOM     10  C   UNL     1      33.952  11.382  -2.965  1.00  0.00     0.067 C
ATOM     11  C   UNL     1      33.012  12.494  -3.095  1.00  0.00     0.114 C
ATOM     12  C   UNL     1      33.584  13.823  -2.604  1.00  0.00     0.042 C
ATOM     13  C   UNL     1      32.673  12.798  -4.551  1.00  0.00     0.138 C
ATOM     14  C   UNL     1      32.702  14.847  -3.302  1.00  0.00     0.121 C
ENDBRANCH   6   8
ENDBRANCH   5   6
BRANCH   5  15
ATOM     15  C   UNL     1      29.513  13.871  -4.854  1.00  0.00     0.024 C
ATOM     16  C   UNL     1      28.094  13.379  -5.024  1.00  0.00     0.010 C
ATOM     17  C   UNL     1      29.237  12.392  -5.050  1.00  0.00    -0.005 C
BRANCH  17  18
ATOM     18  C   UNL     1      29.395  11.398  -3.933  1.00  0.00     0.004 C
BRANCH  18  19
ATOM     19  C   UNL     1      30.088  10.107  -4.394  1.00  0.00     0.001 C
ATOM     20  G   UNL     1      29.432   9.507  -5.645  1.00  0.00     0.000 C
ENDBRANCH  18  19
ENDBRANCH  17  18
ENDBRANCH   5  15
ENDBRANCH   1   5
BRANCH   2  21
ATOM     21  C   UNL     1      28.121  17.569  -6.914  1.00  0.00     0.085 A
ATOM     22  C   UNL     1      26.784  17.916  -7.063  1.00  0.00     0.100 A
ATOM     23  C   UNL     1      28.806  18.775  -6.610  1.00  0.00     0.120 A
ATOM     24  N   UNL     1      26.664  19.275  -6.883  1.00  0.00    -0.344 N
ATOM     25  N   UNL     1      30.122  18.974  -6.349  1.00  0.00    -0.246 NA
ATOM     26  C   UNL     1      27.889  19.811  -6.599  1.00  0.00     0.156 A
ATOM     27  C   UNL     1      30.477  20.247  -6.058  1.00  0.00     0.066 A
ATOM     28  N   UNL     1      28.167  21.103  -6.348  1.00  0.00    -0.235 NA
ATOM     29  C   UNL     1      29.499  21.260  -6.080  1.00  0.00     0.138 A
ATOM     30  H   UNL     1      25.811  19.813  -6.937  1.00  0.00     0.168 HD
BRANCH  27  31
ATOM     31  C   UNL     1      31.960  20.488  -5.688  1.00  0.00     0.014 C
ATOM     32  C   UNL     1      32.284  21.449  -4.550  1.00  0.00     0.014 C
ATOM     33  C   UNL     1      32.591  21.844  -5.963  1.00  0.00     0.014 C
BRANCH  31  34
ATOM     34  C   UNL     1      32.869  19.255  -5.801  1.00  0.00     0.013 C
ATOM     35  G   UNL     1      34.046  19.467  -6.762  1.00  0.00     0.000 C
ENDBRANCH  31  34
ENDBRANCH  27  31
ENDBRANCH   2  21
TORSDOF 2
ENDMDL
MODEL 7
REMARK VINA RESULT:      -8.0      1.114      1.418
REMARK SMILES N#C[C@H]1CCN(C(=O)[C@@H]2NC(=O)c3c[nH]c4ncc(nc34)C3(CCC[C@H]4C[C@@H]42)CC3)C1
REMARK SMILES IDX 10 1 11 2 12 3 9 5 7 6 8 7 6 8 1 9 2 10 3 11 4 12 31 13 5 14
REMARK SMILES IDX 28 15 27 16 26 17 25 18 24 19 13 21 14 22 21 23 15 24 20 25
REMARK SMILES IDX 16 26 19 27 17 28 18 29 22 31 29 32 30 33 23 34
REMARK H PARENT 10 4 15 30
REMARK Flexibility Score:   57.900
ROOT
ATOM      1  N   UNL     1      30.947  15.432  -4.231  1.00  0.00    -0.340 N
ATOM      2  C   UNL     1      32.027  14.833  -4.826  1.00  0.00     0.255 C
ATOM      3  O   UNL     1      32.043  14.486  -6.002  1.00  0.00    -0.269 OA
ATOM      4  H   UNL     1      31.004  15.643  -3.238  1.00  0.00     0.164 HD
ENDROOT
BRANCH   1   5
ATOM      5  C   UNL     1      29.717  15.737  -4.924  1.00  0.00     0.175 C
BRANCH   5   6
ATOM      6  C   UNL     1      30.023  16.740  -6.070  1.00  0.00     0.245 C
ATOM      7  O   UNL     1      29.621  16.560  -7.223  1.00  0.00    -0.272 OA
BRANCH   6   8
ATOM      8  N   UNL     1      30.737  17.878  -5.743  1.00  0.00    -0.340 N
ATOM      9  N   UNL     1      34.393  20.818  -6.264  1.00  0.00    -0.198 NA
ATOM     10  C   UNL     1      33.524  20.203  -5.805  1.00  0.00     0.067 C
ATOM     11  C   UNL     1      32.439  19.418  -5.218  1.00  0.00     0.114 C
ATOM     12  C   UNL     1      31.095  20.145  -5.234  1.00  0.00     0.042 C
ATOM     13  C   UNL     1      32.140  18.154  -6.020  1.00  0.00     0.138 C
ATOM     14  C   UNL     1      30.095  19.008  -5.096  1.00  0.00     0.121 C
ENDBRANCH   6   8
ENDBRANCH   5   6
BRANCH   5  15
ATOM     15  C   UNL     1      29.134  14.411  -5.372  1.00  0.00     0.024 C
ATOM     16  C   UNL     1      28.905  13.237  -4.449  1.00  0.00     0.010 C
ATOM     17  C   UNL     1      27.723  14.007  -4.986  1.00  0.00    -0.005 C
BRANCH  17  18
ATOM     18  C   UNL     1      26.785  13.357  -5.965  1.00  0.00     0.004 C
BRANCH  18  19
ATOM     19  C   UNL     1      25.453  14.110  -6.086  1.00  0.00     0.001 C
ATOM     20  G   UNL     1      24.684  13.734  -7.360  1.00  0.00     0.000 C
ENDBRANCH  18  19
ENDBRANCH  17  18
ENDBRANCH   5  15
ENDBRANCH   1   5
BRANCH   2  21
ATOM     21  C   UNL     1      33.155  14.653  -3.922  1.00  0.00     0.085 A
ATOM     22  C   UNL     1      34.033  15.632  -3.476  1.00  0.00     0.100 A
ATOM     23  C   UNL     1      33.572  13.444  -3.305  1.00  0.00     0.120 A
ATOM     24  N   UNL     1      34.958  15.043  -2.645  1.00  0.00    -0.344 N
ATOM     25  N   UNL     1      33.032  12.203  -3.393  1.00  0.00    -0.246 NA
ATOM     26  C   UNL     1      34.685  13.708  -2.526  1.00  0.00     0.156 A
ATOM     27  C   UNL     1      33.639  11.244  -2.655  1.00  0.00     0.066 A
ATOM     28  N   UNL     1      35.360  12.807  -1.789  1.00  0.00    -0.235 NA
ATOM     29  C   UNL     1      34.779  11.574  -1.896  1.00  0.00     0.138 A
ATOM     30  H   UNL     1      35.724  15.506  -2.176  1.00  0.00     0.168 HD
BRANCH  27  31
ATOM     31  C   UNL     1      33.001   9.835  -2.684  1.00  0.00     0.014 C
ATOM     32  C   UNL     1      32.959   9.024  -1.394  1.00  0.00     0.014 C
ATOM     33  C   UNL     1      33.880   8.608  -2.501  1.00  0.00     0.014 C
BRANCH  31  34
ATOM     34  C   UNL     1      31.778   9.693  -3.604  1.00  0.00     0.013 C
ATOM     35  G   UNL     1      31.426   8.229  -3.904  1.00  0.00     0.000 C
ENDBRANCH  31  34
ENDBRANCH  27  31
ENDBRANCH   2  21
TORSDOF 2
ENDMDL
MODEL 8
REMARK VINA RESULT:      -8.0      2.371      7.770
REMARK SMILES N#C[C@H]1CCN(C(=O)[C@@H]2NC(=O)c3c[nH]c4ncc(nc34)C3(CCC[C@H]4C[C@@H]42)CC3)C1
REMARK SMILES IDX 10 1 11 2 12 3 9 5 7 6 8 7 6 8 1 9 2 10 3 11 4 12 31 13 5 14
REMARK SMILES IDX 28 15 27 16 26 17 25 18 24 19 13 21 14 22 21 23 15 24 20 25
REMARK SMILES IDX 16 26 19 27 17 28 18 29 22 31 29 32 30 33 23 34
REMARK H PARENT 10 4 15 30
REMARK Flexibility Score:   57.900
ROOT
ATOM      1  N   UNL     1      32.017  16.304  -4.913  1.00  0.00    -0.340 N
ATOM      2  C   UNL     1      32.649  16.901  -5.973  1.00  0.00     0.255 C
ATOM      3  O   UNL     1      33.209  16.272  -6.865  1.00  0.00    -0.269 OA
ATOM      4  H   UNL     1      31.619  16.903  -4.194  1.00  0.00     0.164 HD
ENDROOT
BRANCH   1   5
ATOM      5  C   UNL     1      31.925  14.873  -4.736  1.00  0.00     0.175 C
BRANCH   5   6
ATOM      6  C   UNL     1      32.992  14.427  -3.699  1.00  0.00     0.245 C
ATOM      7  O   UNL     1      33.598  15.238  -2.992  1.00  0.00    -0.272 OA
BRANCH   6   8
ATOM      8  N   UNL     1      33.216  13.069  -3.564  1.00  0.00    -0.340 N
ATOM      9  N   UNL     1      34.703   9.291  -1.156  1.00  0.00    -0.198 NA
ATOM     10  C   UNL     1      34.450  10.027  -2.017  1.00  0.00     0.067 C
ATOM     11  C   UNL     1      34.148  10.957  -3.104  1.00  0.00     0.114 C
ATOM     12  C   UNL     1      32.746  10.769  -3.682  1.00  0.00     0.042 C
ATOM     13  C   UNL     1      34.119  12.408  -2.633  1.00  0.00     0.138 C
ATOM     14  C   UNL     1      32.479  12.104  -4.360  1.00  0.00     0.121 C
ENDBRANCH   6   8
ENDBRANCH   5   6
BRANCH   5  15
ATOM     15  C   UNL     1      30.489  14.579  -4.345  1.00  0.00     0.024 C
ATOM     16  C   UNL     1      29.318  15.461  -4.711  1.00  0.00     0.010 C
ATOM     17  C   UNL     1      29.478  14.115  -5.377  1.00  0.00    -0.005 C
BRANCH  17  18
ATOM     18  C   UNL     1      28.495  13.015  -5.089  1.00  0.00     0.004 C
BRANCH  18  19
ATOM     19  C   UNL     1      27.288  13.045  -6.039  1.00  0.00     0.001 C
ATOM     20  G   UNL     1      26.107  13.833  -5.456  1.00  0.00     0.000 C
ENDBRANCH  18  19
ENDBRANCH  17  18
ENDBRANCH   5  15
ENDBRANCH   1   5
BRANCH   2  21
ATOM     21  C   UNL     1      32.585  18.355  -5.937  1.00  0.00     0.085 A
ATOM     22  C   UNL     1      33.651  19.235  -5.801  1.00  0.00     0.100 A
ATOM     23  C   UNL     1      31.422  19.163  -6.049  1.00  0.00     0.120 A
ATOM     24  N   UNL     1      33.158  20.520  -5.805  1.00  0.00    -0.344 N
ATOM     25  N   UNL     1      30.130  18.791  -6.224  1.00  0.00    -0.246 NA
ATOM     26  C   UNL     1      31.799  20.491  -5.961  1.00  0.00     0.156 A
ATOM     27  C   UNL     1      29.236  19.801  -6.328  1.00  0.00     0.066 A
ATOM     28  N   UNL     1      30.971  21.549  -6.026  1.00  0.00    -0.235 NA
ATOM     29  C   UNL     1      29.682  21.133  -6.213  1.00  0.00     0.138 A
ATOM     30  H   UNL     1      33.698  21.369  -5.716  1.00  0.00     0.168 HD
BRANCH  27  31
ATOM     31  C   UNL     1      27.766  19.405  -6.597  1.00  0.00     0.014 C
ATOM     32  C   UNL     1      27.202  18.167  -5.909  1.00  0.00     0.014 C
ATOM     33  C   UNL     1      27.460  18.141  -7.386  1.00  0.00     0.014 C
BRANCH  31  34
ATOM     34  C   UNL     1      26.792  20.583  -6.755  1.00  0.00     0.013 C
ATOM     35  G   UNL     1      26.028  20.551  -8.086  1.00  0.00     0.000 C
ENDBRANCH  31  34
ENDBRANCH  27  31
ENDBRANCH   2  21
TORSDOF 2
ENDMDL
MODEL 9
REMARK VINA RESULT:      -8.0      1.539      2.456
REMARK SMILES N#C[C@H]1CCN(C(=O)[C@@H]2NC(=O)c3c[nH]c4ncc(nc34)C3(CCC[C@H]4C[C@@H]42)CC3)C1
REMARK SMILES IDX 10 1 11 2 12 3 9 5 7 6 8 7 6 8 1 9 2 10 3 11 4 12 31 13 5 14
REMARK SMILES IDX 28 15 27 16 26 17 25 18 24 19 13 21 14 22 21 23 15 24 20 25
REMARK SMILES IDX 16 26 19 27 17 28 18 29 22 31 29 32 30 33 23 34
REMARK H PARENT 10 4 15 30
REMARK Flexibility Score:   57.900
ROOT
ATOM      1  N   UNL     1      32.708  14.280  -3.384  1.00  0.00    -0.340 N
ATOM      2  C   UNL     1      34.014  14.207  -2.974  1.00  0.00     0.255 C
ATOM      3  O   UNL     1      34.784  15.160  -3.001  1.00  0.00    -0.269 OA
ATOM      4  H   UNL     1      32.155  13.427  -3.372  1.00  0.00     0.164 HD
ENDROOT
BRANCH   1   5
ATOM      5  C   UNL     1      32.089  15.489  -3.877  1.00  0.00     0.175 C
BRANCH   5   6
ATOM      6  C   UNL     1      32.454  15.664  -5.376  1.00  0.00     0.245 C
ATOM      7  O   UNL     1      32.380  14.731  -6.182  1.00  0.00    -0.272 OA
BRANCH   6   8
ATOM      8  N   UNL     1      32.835  16.926  -5.794  1.00  0.00    -0.340 N
ATOM      9  N   UNL     1      33.923  21.448  -4.992  1.00  0.00    -0.198 NA
ATOM     10  C   UNL     1      33.534  20.474  -5.487  1.00  0.00     0.067 C
ATOM     11  C   UNL     1      33.028  19.251  -6.108  1.00  0.00     0.114 C
ATOM     12  C   UNL     1      34.069  18.542  -6.974  1.00  0.00     0.042 C
ATOM     13  C   UNL     1      32.673  18.183  -5.077  1.00  0.00     0.138 C
ATOM     14  C   UNL     1      33.530  17.122  -7.053  1.00  0.00     0.121 C
ENDBRANCH   6   8
ENDBRANCH   5   6
BRANCH   5  15
ATOM     15  C   UNL     1      30.605  15.361  -3.590  1.00  0.00     0.024 C
ATOM     16  C   UNL     1      29.573  16.376  -4.024  1.00  0.00     0.010 C
ATOM     17  C   UNL     1      29.622  15.024  -4.695  1.00  0.00    -0.005 C
BRANCH  17  18
ATOM     18  C   UNL     1      28.500  14.045  -4.491  1.00  0.00     0.004 C
BRANCH  18  19
ATOM     19  C   UNL     1      27.167  14.555  -5.057  1.00  0.00     0.001 C
ATOM     20  G   UNL     1      27.127  14.508  -6.590  1.00  0.00     0.000 C
ENDBRANCH  18  19
ENDBRANCH  17  18
ENDBRANCH   5  15
ENDBRANCH   1   5
BRANCH   2  21
ATOM     21  C   UNL     1      34.395  12.883  -2.498  1.00  0.00     0.085 A
ATOM     22  C   UNL     1      35.485  12.564  -1.699  1.00  0.00     0.100 A
ATOM     23  C   UNL     1      33.718  11.660  -2.745  1.00  0.00     0.120 A
ATOM     24  N   UNL     1      35.487  11.204  -1.488  1.00  0.00    -0.344 N
ATOM     25  N   UNL     1      32.582  11.431  -3.449  1.00  0.00    -0.246 NA
ATOM     26  C   UNL     1      34.411  10.640  -2.116  1.00  0.00     0.156 A
ATOM     27  C   UNL     1      32.159  10.147  -3.481  1.00  0.00     0.066 A
ATOM     28  N   UNL     1      34.071   9.338  -2.124  1.00  0.00    -0.235 NA
ATOM     29  C   UNL     1      32.918   9.152  -2.834  1.00  0.00     0.138 A
ATOM     30  H   UNL     1      36.163  10.683  -0.949  1.00  0.00     0.168 HD
BRANCH  27  31
ATOM     31  C   UNL     1      30.828   9.871  -4.220  1.00  0.00     0.014 C
ATOM     32  C   UNL     1      30.258  10.952  -5.131  1.00  0.00     0.014 C
ATOM     33  C   UNL     1      29.578  10.645  -3.831  1.00  0.00     0.014 C
BRANCH  31  34
ATOM     34  C   UNL     1      30.637   8.423  -4.700  1.00  0.00     0.013 C
ATOM     35  G   UNL     1      29.458   8.268  -5.670  1.00  0.00     0.000 C
ENDBRANCH  31  34
ENDBRANCH  27  31
ENDBRANCH   2  21
TORSDOF 2
ENDMDL
