MODEL 1
REMARK VINA RESULT:      -7.9      0.000      0.000
REMARK SMILES O=C1Nc2c[nH]nc2-c2nc3ccc(cc3[nH]2)CN2CCOC[C@@H]2CCOCCCC2(CC2)N1
REMARK SMILES IDX 9 1 10 2 11 3 12 4 13 5 14 6 15 7 16 8 17 9 8 11 4 12 5 13
REMARK SMILES IDX 6 14 7 15 3 17 1 18 2 19 34 20 31 23 32 24 33 25 30 26 29 27
REMARK SMILES IDX 18 29 19 30 20 31 24 32 21 33 23 34 22 35 25 36 26 37 27 38
REMARK SMILES IDX 28 39
REMARK H PARENT 17 10 6 16 3 21 34 22
REMARK Flexibility Score:   58.900
ROOT
ATOM      1  C   UNL     1      32.680  17.221  -5.268  1.00  0.00     0.161 A
ATOM      2  N   UNL     1      33.211  16.713  -4.166  1.00  0.00    -0.227 NA
ATOM      3  C   UNL     1      32.958  15.367  -4.212  1.00  0.00     0.089 A
ATOM      4  C   UNL     1      33.224  14.367  -3.268  1.00  0.00     0.031 A
ATOM      5  C   UNL     1      32.812  13.057  -3.549  1.00  0.00     0.007 A
ATOM      6  C   UNL     1      32.174  12.724  -4.760  1.00  0.00    -0.032 A
ATOM      7  C   UNL     1      31.987  13.715  -5.739  1.00  0.00     0.033 A
ATOM      8  C   UNL     1      32.341  15.023  -5.402  1.00  0.00     0.066 A
ATOM      9  N   UNL     1      32.192  16.216  -6.056  1.00  0.00    -0.337 N
ATOM     10  H   UNL     1      31.797  16.338  -6.979  1.00  0.00     0.168 HD
ENDROOT
BRANCH   1  11
ATOM     11  C   UNL     1      32.626  18.776  -5.567  1.00  0.00     0.151 A
ATOM     12  C   UNL     1      31.550  19.671  -5.890  1.00  0.00     0.092 A
ATOM     13  C   UNL     1      32.157  20.912  -5.957  1.00  0.00     0.132 A
ATOM     14  N   UNL     1      33.477  20.720  -5.704  1.00  0.00    -0.283 N
ATOM     15  N   UNL     1      33.782  19.456  -5.437  1.00  0.00    -0.170 NA
ATOM     16  H   UNL     1      34.224  21.406  -5.677  1.00  0.00     0.189 HD
BRANCH  12  17
ATOM     17  N   UNL     1      30.174  19.615  -6.047  1.00  0.00    -0.304 N
ATOM     18  O   UNL     1      29.767  17.549  -6.993  1.00  0.00    -0.248 OA
ATOM     19  C   UNL     1      29.383  18.565  -6.432  1.00  0.00     0.319 C
ATOM     20  N   UNL     1      28.057  18.803  -6.122  1.00  0.00    -0.332 N
ATOM     21  H   UNL     1      29.698  20.502  -5.977  1.00  0.00     0.172 HD
ATOM     22  H   UNL     1      27.840  19.570  -5.503  1.00  0.00     0.165 HD
BRANCH  20  23
ATOM     23  C   UNL     1      26.968  17.947  -6.521  1.00  0.00     0.042 C
ATOM     24  C   UNL     1      25.870  18.573  -7.362  1.00  0.00     0.031 C
ATOM     25  C   UNL     1      26.831  17.612  -7.992  1.00  0.00     0.031 C
BRANCH  23  26
ATOM     26  C   UNL     1      26.546  16.867  -5.533  1.00  0.00     0.031 C
BRANCH  26  27
ATOM     27  C   UNL     1      27.731  16.107  -4.927  1.00  0.00     0.031 C
ATOM     28  G   UNL     1      28.072  14.835  -5.706  1.00  0.00     0.000 C
ENDBRANCH  26  27
ENDBRANCH  23  26
ENDBRANCH  20  23
ENDBRANCH  12  17
ENDBRANCH   1  11
BRANCH   6  29
ATOM     29  C   UNL     1      31.734  11.282  -4.974  1.00  0.00     0.120 C
BRANCH  29  30
ATOM     30  N   UNL     1      31.293  10.549  -3.764  1.00  0.00    -0.291 NA
ATOM     31  C   UNL     1      29.828  10.365  -3.800  1.00  0.00     0.113 C
ATOM     32  C   UNL     1      31.953   9.217  -3.632  1.00  0.00     0.085 C
ATOM     33  C   UNL     1      29.338   9.404  -4.905  1.00  0.00     0.175 C
ATOM     34  C   UNL     1      31.075   8.020  -4.092  1.00  0.00     0.179 C
ATOM     35  O   UNL     1      30.276   8.367  -5.225  1.00  0.00    -0.378 OA
BRANCH  32  36
ATOM     36  C   UNL     1      32.349   9.038  -2.153  1.00  0.00     0.050 C
BRANCH  36  37
ATOM     37  C   UNL     1      33.853   8.907  -1.940  1.00  0.00     0.162 C
BRANCH  37  38
ATOM     38  O   UNL     1      34.430  10.175  -2.251  1.00  0.00    -0.381 OA
BRANCH  38  39
ATOM     39  C   UNL     1      35.356  10.644  -1.278  1.00  0.00     0.160 C
ATOM     40  G   UNL     1      35.720  12.113  -1.497  1.00  0.00     0.000 C
ENDBRANCH  38  39
ENDBRANCH  37  38
ENDBRANCH  36  37
ENDBRANCH  32  36
ENDBRANCH  29  30
ENDBRANCH   6  29
TORSDOF 0
ENDMDL
MODEL 2
REMARK VINA RESULT:      -7.8      2.405      9.093
REMARK SMILES O=C1Nc2c[nH]nc2-c2nc3ccc(cc3[nH]2)CN2CCOC[C@@H]2CCOCCCC2(CC2)N1
REMARK SMILES IDX 9 1 10 2 11 3 12 4 13 5 14 6 15 7 16 8 17 9 8 11 4 12 5 13
REMARK SMILES IDX 6 14 7 15 3 17 1 18 2 19 34 20 31 23 32 24 33 25 30 26 29 27
REMARK SMILES IDX 18 29 19 30 20 31 24 32 21 33 23 34 22 35 25 36 26 37 27 38
REMARK SMILES IDX 28 39
REMARK H PARENT 17 10 6 16 3 21 34 22
REMARK Flexibility Score:   58.900
ROOT
ATOM      1  C   UNL     1      29.054  11.371  -5.228  1.00  0.00     0.161 A
ATOM      2  N   UNL     1      27.747  11.563  -5.333  1.00  0.00    -0.227 NA
ATOM      3  C   UNL     1      27.568  12.921  -5.374  1.00  0.00     0.089 A
ATOM      4  C   UNL     1      26.388  13.674  -5.399  1.00  0.00     0.031 A
ATOM      5  C   UNL     1      26.487  15.073  -5.391  1.00  0.00     0.007 A
ATOM      6  C   UNL     1      27.735  15.727  -5.390  1.00  0.00    -0.032 A
ATOM      7  C   UNL     1      28.916  14.966  -5.451  1.00  0.00     0.033 A
ATOM      8  C   UNL     1      28.786  13.578  -5.385  1.00  0.00     0.066 A
ATOM      9  N   UNL     1      29.708  12.568  -5.307  1.00  0.00    -0.337 N
ATOM     10  H   UNL     1      30.713  12.685  -5.319  1.00  0.00     0.168 HD
ENDROOT
BRANCH   1  11
ATOM     11  C   UNL     1      29.706   9.943  -5.020  1.00  0.00     0.151 A
ATOM     12  C   UNL     1      30.873   9.496  -4.311  1.00  0.00     0.092 A
ATOM     13  C   UNL     1      30.846   8.121  -4.456  1.00  0.00     0.132 A
ATOM     14  N   UNL     1      29.752   7.825  -5.203  1.00  0.00    -0.283 N
ATOM     15  N   UNL     1      29.034   8.892  -5.529  1.00  0.00    -0.170 NA
ATOM     16  H   UNL     1      29.422   6.915  -5.512  1.00  0.00     0.189 HD
BRANCH  12  17
ATOM     17  N   UNL     1      31.871  10.044  -3.521  1.00  0.00    -0.304 N
ATOM     18  O   UNL     1      32.803  11.714  -4.812  1.00  0.00    -0.248 OA
ATOM     19  C   UNL     1      32.645  11.153  -3.738  1.00  0.00     0.319 C
ATOM     20  N   UNL     1      33.260  11.565  -2.571  1.00  0.00    -0.332 N
ATOM     21  H   UNL     1      32.145   9.483  -2.727  1.00  0.00     0.172 HD
ATOM     22  H   UNL     1      32.943  11.171  -1.697  1.00  0.00     0.165 HD
BRANCH  20  23
ATOM     23  C   UNL     1      34.240  12.620  -2.502  1.00  0.00     0.042 C
ATOM     24  C   UNL     1      35.340  12.476  -1.467  1.00  0.00     0.031 C
ATOM     25  C   UNL     1      35.660  12.298  -2.920  1.00  0.00     0.031 C
BRANCH  23  26
ATOM     26  C   UNL     1      33.748  14.034  -2.791  1.00  0.00     0.031 C
BRANCH  26  27
ATOM     27  C   UNL     1      32.221  14.156  -2.775  1.00  0.00     0.031 C
ATOM     28  G   UNL     1      31.721  15.121  -1.698  1.00  0.00     0.000 C
ENDBRANCH  26  27
ENDBRANCH  23  26
ENDBRANCH  20  23
ENDBRANCH  12  17
ENDBRANCH   1  11
BRANCH   6  29
ATOM     29  C   UNL     1      27.754  17.249  -5.353  1.00  0.00     0.120 C
BRANCH  29  30
ATOM     30  N   UNL     1      28.637  17.915  -6.339  1.00  0.00    -0.291 NA
ATOM     31  C   UNL     1      27.854  18.297  -7.531  1.00  0.00     0.113 C
ATOM     32  C   UNL     1      29.305  19.127  -5.779  1.00  0.00     0.085 C
ATOM     33  C   UNL     1      26.822  19.417  -7.277  1.00  0.00     0.175 C
ATOM     34  C   UNL     1      28.638  20.470  -6.187  1.00  0.00     0.179 C
ATOM     35  O   UNL     1      27.216  20.345  -6.256  1.00  0.00    -0.378 OA
BRANCH  32  36
ATOM     36  C   UNL     1      30.774  19.107  -6.247  1.00  0.00     0.050 C
BRANCH  36  37
ATOM     37  C   UNL     1      31.774  19.053  -5.098  1.00  0.00     0.162 C
BRANCH  37  38
ATOM     38  O   UNL     1      31.831  17.697  -4.657  1.00  0.00    -0.381 OA
BRANCH  38  39
ATOM     39  C   UNL     1      32.910  16.954  -5.210  1.00  0.00     0.160 C
ATOM     40  G   UNL     1      32.419  15.792  -6.076  1.00  0.00     0.000 C
ENDBRANCH  38  39
ENDBRANCH  37  38
ENDBRANCH  36  37
ENDBRANCH  32  36
ENDBRANCH  29  30
ENDBRANCH   6  29
TORSDOF 0
ENDMDL
MODEL 3
REMARK VINA RESULT:      -7.5      3.349      6.229
REMARK SMILES O=C1Nc2c[nH]nc2-c2nc3ccc(cc3[nH]2)CN2CCOC[C@@H]2CCOCCCC2(CC2)N1
REMARK SMILES IDX 9 1 10 2 11 3 12 4 13 5 14 6 15 7 16 8 17 9 8 11 4 12 5 13
REMARK SMILES IDX 6 14 7 15 3 17 1 18 2 19 34 20 31 23 32 24 33 25 30 26 29 27
REMARK SMILES IDX 18 29 19 30 20 31 24 32 21 33 23 34 22 35 25 36 26 37 27 38
REMARK SMILES IDX 28 39
REMARK H PARENT 17 10 6 16 3 21 34 22
REMARK Flexibility Score:   58.900
ROOT
ATOM      1  C   UNL     1      32.079  11.851  -3.898  1.00  0.00     0.161 A
ATOM      2  N   UNL     1      32.527  10.728  -3.357  1.00  0.00    -0.227 NA
ATOM      3  C   UNL     1      31.739   9.727  -3.858  1.00  0.00     0.089 A
ATOM      4  C   UNL     1      31.720   8.359  -3.559  1.00  0.00     0.031 A
ATOM      5  C   UNL     1      30.764   7.550  -4.189  1.00  0.00     0.007 A
ATOM      6  C   UNL     1      29.854   8.073  -5.129  1.00  0.00    -0.032 A
ATOM      7  C   UNL     1      29.933   9.429  -5.488  1.00  0.00     0.033 A
ATOM      8  C   UNL     1      30.846  10.223  -4.791  1.00  0.00     0.066 A
ATOM      9  N   UNL     1      31.096  11.570  -4.806  1.00  0.00    -0.337 N
ATOM     10  H   UNL     1      30.639  12.248  -5.401  1.00  0.00     0.168 HD
ENDROOT
BRANCH   1  11
ATOM     11  C   UNL     1      32.622  13.284  -3.499  1.00  0.00     0.151 A
ATOM     12  C   UNL     1      32.007  14.581  -3.444  1.00  0.00     0.092 A
ATOM     13  C   UNL     1      33.003  15.402  -2.946  1.00  0.00     0.132 A
ATOM     14  N   UNL     1      34.096  14.622  -2.751  1.00  0.00    -0.283 N
ATOM     15  N   UNL     1      33.889  13.344  -3.045  1.00  0.00    -0.170 NA
ATOM     16  H   UNL     1      35.012  14.889  -2.402  1.00  0.00     0.189 HD
BRANCH  12  17
ATOM     17  N   UNL     1      30.757  15.139  -3.662  1.00  0.00    -0.304 N
ATOM     18  O   UNL     1      30.086  14.313  -5.709  1.00  0.00    -0.248 OA
ATOM     19  C   UNL     1      29.848  14.881  -4.654  1.00  0.00     0.319 C
ATOM     20  N   UNL     1      28.599  15.371  -4.322  1.00  0.00    -0.332 N
ATOM     21  H   UNL     1      30.531  15.927  -3.073  1.00  0.00     0.172 HD
ATOM     22  H   UNL     1      28.436  15.662  -3.369  1.00  0.00     0.165 HD
BRANCH  20  23
ATOM     23  C   UNL     1      27.468  15.374  -5.216  1.00  0.00     0.042 C
ATOM     24  C   UNL     1      26.819  16.715  -5.505  1.00  0.00     0.031 C
ATOM     25  C   UNL     1      27.633  16.041  -6.566  1.00  0.00     0.031 C
BRANCH  23  26
ATOM     26  C   UNL     1      26.547  14.161  -5.162  1.00  0.00     0.031 C
BRANCH  26  27
ATOM     27  C   UNL     1      26.827  13.141  -6.271  1.00  0.00     0.031 C
ATOM     28  G   UNL     1      27.505  11.875  -5.746  1.00  0.00     0.000 C
ENDBRANCH  26  27
ENDBRANCH  23  26
ENDBRANCH  20  23
ENDBRANCH  12  17
ENDBRANCH   1  11
BRANCH   6  29
ATOM     29  C   UNL     1      28.830   7.130  -5.746  1.00  0.00     0.120 C
BRANCH  29  30
ATOM     30  N   UNL     1      28.961   6.887  -7.201  1.00  0.00    -0.291 NA
ATOM     31  C   UNL     1      29.337   5.479  -7.440  1.00  0.00     0.113 C
ATOM     32  C   UNL     1      27.705   7.193  -7.946  1.00  0.00     0.085 C
ATOM     33  C   UNL     1      28.233   4.461  -7.084  1.00  0.00     0.175 C
ATOM     34  C   UNL     1      26.851   5.944  -8.301  1.00  0.00     0.179 C
ATOM     35  O   UNL     1      26.902   4.967  -7.260  1.00  0.00    -0.378 OA
BRANCH  32  36
ATOM     36  C   UNL     1      28.098   7.943  -9.235  1.00  0.00     0.050 C
BRANCH  36  37
ATOM     37  C   UNL     1      27.586   9.378  -9.281  1.00  0.00     0.162 C
BRANCH  37  38
ATOM     38  O   UNL     1      28.142   9.983 -10.448  1.00  0.00    -0.381 OA
BRANCH  38  39
ATOM     39  C   UNL     1      27.373  11.064 -10.961  1.00  0.00     0.160 C
ATOM     40  G   UNL     1      26.976  12.054  -9.864  1.00  0.00     0.000 C
ENDBRANCH  38  39
ENDBRANCH  37  38
ENDBRANCH  36  37
ENDBRANCH  32  36
ENDBRANCH  29  30
ENDBRANCH   6  29
TORSDOF 0
ENDMDL
MODEL 4
REMARK VINA RESULT:      -7.4      1.377      1.594
REMARK SMILES O=C1Nc2c[nH]nc2-c2nc3ccc(cc3[nH]2)CN2CCOC[C@@H]2CCOCCCC2(CC2)N1
REMARK SMILES IDX 9 1 10 2 11 3 12 4 13 5 14 6 15 7 16 8 17 9 8 11 4 12 5 13
REMARK SMILES IDX 6 14 7 15 3 17 1 18 2 19 34 20 31 23 32 24 33 25 30 26 29 27
REMARK SMILES IDX 18 29 19 30 20 31 24 32 21 33 23 34 22 35 25 36 26 37 27 38
REMARK SMILES IDX 28 39
REMARK H PARENT 17 10 6 16 3 21 34 22
REMARK Flexibility Score:   58.900
ROOT
ATOM      1  C   UNL     1      31.563  17.303  -5.195  1.00  0.00     0.161 A
ATOM      2  N   UNL     1      32.085  16.966  -4.025  1.00  0.00    -0.227 NA
ATOM      3  C   UNL     1      32.219  15.603  -4.050  1.00  0.00     0.089 A
ATOM      4  C   UNL     1      32.640  14.719  -3.049  1.00  0.00     0.031 A
ATOM      5  C   UNL     1      32.638  13.345  -3.325  1.00  0.00     0.007 A
ATOM      6  C   UNL     1      32.256  12.843  -4.586  1.00  0.00    -0.032 A
ATOM      7  C   UNL     1      31.916  13.739  -5.613  1.00  0.00     0.033 A
ATOM      8  C   UNL     1      31.858  15.095  -5.286  1.00  0.00     0.066 A
ATOM      9  N   UNL     1      31.462  16.199  -5.994  1.00  0.00    -0.337 N
ATOM     10  H   UNL     1      31.155  16.202  -6.958  1.00  0.00     0.168 HD
ENDROOT
BRANCH   1  11
ATOM     11  C   UNL     1      31.119  18.780  -5.553  1.00  0.00     0.151 A
ATOM     12  C   UNL     1      29.944  19.322  -6.177  1.00  0.00     0.092 A
ATOM     13  C   UNL     1      30.141  20.691  -6.128  1.00  0.00     0.132 A
ATOM     14  N   UNL     1      31.344  20.894  -5.533  1.00  0.00    -0.283 N
ATOM     15  N   UNL     1      31.938  19.771  -5.151  1.00  0.00    -0.170 NA
ATOM     16  H   UNL     1      31.813  21.773  -5.337  1.00  0.00     0.189 HD
BRANCH  12  17
ATOM     17  N   UNL     1      28.740  18.860  -6.686  1.00  0.00    -0.304 N
ATOM     18  O   UNL     1      29.219  16.769  -7.539  1.00  0.00    -0.248 OA
ATOM     19  C   UNL     1      28.421  17.623  -7.181  1.00  0.00     0.319 C
ATOM     20  N   UNL     1      27.051  17.456  -7.250  1.00  0.00    -0.332 N
ATOM     21  H   UNL     1      28.030  19.565  -6.814  1.00  0.00     0.172 HD
ATOM     22  H   UNL     1      26.461  18.121  -6.772  1.00  0.00     0.165 HD
BRANCH  20  23
ATOM     23  C   UNL     1      26.405  16.316  -7.853  1.00  0.00     0.042 C
ATOM     24  C   UNL     1      25.312  16.597  -8.867  1.00  0.00     0.031 C
ATOM     25  C   UNL     1      26.634  16.069  -9.330  1.00  0.00     0.031 C
BRANCH  23  26
ATOM     26  C   UNL     1      26.229  15.083  -6.974  1.00  0.00     0.031 C
BRANCH  26  27
ATOM     27  C   UNL     1      27.322  14.029  -7.187  1.00  0.00     0.031 C
ATOM     28  G   UNL     1      26.749  12.639  -7.470  1.00  0.00     0.000 C
ENDBRANCH  26  27
ENDBRANCH  23  26
ENDBRANCH  20  23
ENDBRANCH  12  17
ENDBRANCH   1  11
BRANCH   6  29
ATOM     29  C   UNL     1      32.257  11.335  -4.793  1.00  0.00     0.120 C
BRANCH  29  30
ATOM     30  N   UNL     1      31.476  10.542  -3.816  1.00  0.00    -0.291 NA
ATOM     31  C   UNL     1      30.063  10.971  -3.841  1.00  0.00     0.113 C
ATOM     32  C   UNL     1      31.549   9.075  -4.083  1.00  0.00     0.085 C
ATOM     33  C   UNL     1      29.318  10.619  -5.146  1.00  0.00     0.175 C
ATOM     34  C   UNL     1      30.309   8.496  -4.819  1.00  0.00     0.179 C
ATOM     35  O   UNL     1      29.795   9.422  -5.779  1.00  0.00    -0.378 OA
BRANCH  32  36
ATOM     36  C   UNL     1      31.734   8.364  -2.727  1.00  0.00     0.050 C
BRANCH  36  37
ATOM     37  C   UNL     1      32.587   9.153  -1.741  1.00  0.00     0.162 C
BRANCH  37  38
ATOM     38  O   UNL     1      33.813   8.439  -1.584  1.00  0.00    -0.381 OA
BRANCH  38  39
ATOM     39  C   UNL     1      34.976   9.240  -1.755  1.00  0.00     0.160 C
ATOM     40  G   UNL     1      34.630  10.657  -2.216  1.00  0.00     0.000 C
ENDBRANCH  38  39
ENDBRANCH  37  38
ENDBRANCH  36  37
ENDBRANCH  32  36
ENDBRANCH  29  30
ENDBRANCH   6  29
TORSDOF 0
ENDMDL
MODEL 5
REMARK VINA RESULT:      -7.4      3.597      9.197
REMARK SMILES O=C1Nc2c[nH]nc2-c2nc3ccc(cc3[nH]2)CN2CCOC[C@@H]2CCOCCCC2(CC2)N1
REMARK SMILES IDX 9 1 10 2 11 3 12 4 13 5 14 6 15 7 16 8 17 9 8 11 4 12 5 13
REMARK SMILES IDX 6 14 7 15 3 17 1 18 2 19 34 20 31 23 32 24 33 25 30 26 29 27
REMARK SMILES IDX 18 29 19 30 20 31 24 32 21 33 23 34 22 35 25 36 26 37 27 38
REMARK SMILES IDX 28 39
REMARK H PARENT 17 10 6 16 3 21 34 22
REMARK Flexibility Score:   58.900
ROOT
ATOM      1  C   UNL     1      30.417   8.549  -4.548  1.00  0.00     0.161 A
ATOM      2  N   UNL     1      31.444   8.762  -3.739  1.00  0.00    -0.227 NA
ATOM      3  C   UNL     1      31.787  10.078  -3.902  1.00  0.00     0.089 A
ATOM      4  C   UNL     1      32.848  10.809  -3.354  1.00  0.00     0.031 A
ATOM      5  C   UNL     1      33.000  12.151  -3.729  1.00  0.00     0.007 A
ATOM      6  C   UNL     1      32.099  12.781  -4.610  1.00  0.00    -0.032 A
ATOM      7  C   UNL     1      30.987  12.067  -5.090  1.00  0.00     0.033 A
ATOM      8  C   UNL     1      30.903  10.714  -4.757  1.00  0.00     0.066 A
ATOM      9  N   UNL     1      30.039   9.723  -5.137  1.00  0.00    -0.337 N
ATOM     10  H   UNL     1      29.239   9.839  -5.746  1.00  0.00     0.168 HD
ENDROOT
BRANCH   1  11
ATOM     11  C   UNL     1      29.776   7.120  -4.778  1.00  0.00     0.151 A
ATOM     12  C   UNL     1      28.715   6.650  -5.625  1.00  0.00     0.092 A
ATOM     13  C   UNL     1      28.696   5.284  -5.410  1.00  0.00     0.132 A
ATOM     14  N   UNL     1      29.665   5.014  -4.500  1.00  0.00    -0.283 N
ATOM     15  N   UNL     1      30.349   6.089  -4.126  1.00  0.00    -0.170 NA
ATOM     16  H   UNL     1      29.931   4.118  -4.102  1.00  0.00     0.189 HD
BRANCH  12  17
ATOM     17  N   UNL     1      27.850   7.167  -6.577  1.00  0.00    -0.304 N
ATOM     18  O   UNL     1      29.177   8.484  -7.931  1.00  0.00    -0.248 OA
ATOM     19  C   UNL     1      28.129   7.898  -7.702  1.00  0.00     0.319 C
ATOM     20  N   UNL     1      27.049   7.913  -8.564  1.00  0.00    -0.332 N
ATOM     21  H   UNL     1      26.870   7.092  -6.351  1.00  0.00     0.172 HD
ATOM     22  H   UNL     1      26.294   7.264  -8.397  1.00  0.00     0.165 HD
BRANCH  20  23
ATOM     23  C   UNL     1      26.985   8.705  -9.767  1.00  0.00     0.042 C
ATOM     24  C   UNL     1      27.671   8.146 -11.000  1.00  0.00     0.031 C
ATOM     25  C   UNL     1      26.176   8.168 -10.929  1.00  0.00     0.031 C
BRANCH  23  26
ATOM     26  C   UNL     1      27.009  10.219  -9.594  1.00  0.00     0.031 C
BRANCH  26  27
ATOM     27  C   UNL     1      25.620  10.819  -9.346  1.00  0.00     0.031 C
ATOM     28  G   UNL     1      25.315  11.995 -10.277  1.00  0.00     0.000 C
ENDBRANCH  26  27
ENDBRANCH  23  26
ENDBRANCH  20  23
ENDBRANCH  12  17
ENDBRANCH   1  11
BRANCH   6  29
ATOM     29  C   UNL     1      32.353  14.234  -4.987  1.00  0.00     0.120 C
BRANCH  29  30
ATOM     30  N   UNL     1      31.326  15.209  -4.552  1.00  0.00    -0.291 NA
ATOM     31  C   UNL     1      31.959  16.517  -4.292  1.00  0.00     0.113 C
ATOM     32  C   UNL     1      30.240  15.381  -5.562  1.00  0.00     0.085 C
ATOM     33  C   UNL     1      32.498  17.222  -5.555  1.00  0.00     0.175 C
ATOM     34  C   UNL     1      30.383  16.651  -6.445  1.00  0.00     0.179 C
ATOM     35  O   UNL     1      31.753  16.924  -6.745  1.00  0.00    -0.378 OA
BRANCH  32  36
ATOM     36  C   UNL     1      28.899  15.420  -4.801  1.00  0.00     0.050 C
BRANCH  36  37
ATOM     37  C   UNL     1      27.898  14.375  -5.284  1.00  0.00     0.162 C
BRANCH  37  38
ATOM     38  O   UNL     1      28.393  13.864  -6.521  1.00  0.00    -0.381 OA
BRANCH  38  39
ATOM     39  C   UNL     1      27.415  13.795  -7.551  1.00  0.00     0.160 C
ATOM     40  G   UNL     1      25.996  13.705  -6.987  1.00  0.00     0.000 C
ENDBRANCH  38  39
ENDBRANCH  37  38
ENDBRANCH  36  37
ENDBRANCH  32  36
ENDBRANCH  29  30
ENDBRANCH   6  29
TORSDOF 0
ENDMDL
MODEL 6
REMARK VINA RESULT:      -7.4      2.237      8.894
REMARK SMILES O=C1Nc2c[nH]nc2-c2nc3ccc(cc3[nH]2)CN2CCOC[C@@H]2CCOCCCC2(CC2)N1
REMARK SMILES IDX 9 1 10 2 11 3 12 4 13 5 14 6 15 7 16 8 17 9 8 11 4 12 5 13
REMARK SMILES IDX 6 14 7 15 3 17 1 18 2 19 34 20 31 23 32 24 33 25 30 26 29 27
REMARK SMILES IDX 18 29 19 30 20 31 24 32 21 33 23 34 22 35 25 36 26 37 27 38
REMARK SMILES IDX 28 39
REMARK H PARENT 17 10 6 16 3 21 34 22
REMARK Flexibility Score:   58.900
ROOT
ATOM      1  C   UNL     1      32.611  12.512  -3.977  1.00  0.00     0.161 A
ATOM      2  N   UNL     1      31.885  12.739  -5.061  1.00  0.00    -0.227 NA
ATOM      3  C   UNL     1      31.873  14.098  -5.230  1.00  0.00     0.089 A
ATOM      4  C   UNL     1      31.192  14.885  -6.167  1.00  0.00     0.031 A
ATOM      5  C   UNL     1      31.317  16.279  -6.087  1.00  0.00     0.007 A
ATOM      6  C   UNL     1      32.131  16.895  -5.115  1.00  0.00    -0.032 A
ATOM      7  C   UNL     1      32.879  16.098  -4.232  1.00  0.00     0.033 A
ATOM      8  C   UNL     1      32.677  14.718  -4.289  1.00  0.00     0.066 A
ATOM      9  N   UNL     1      33.143  13.685  -3.520  1.00  0.00    -0.337 N
ATOM     10  H   UNL     1      33.787  13.771  -2.744  1.00  0.00     0.168 HD
ENDROOT
BRANCH   1  11
ATOM     11  C   UNL     1      32.786  11.075  -3.335  1.00  0.00     0.151 A
ATOM     12  C   UNL     1      32.096   9.830  -3.527  1.00  0.00     0.092 A
ATOM     13  C   UNL     1      32.783   8.939  -2.721  1.00  0.00     0.132 A
ATOM     14  N   UNL     1      33.774   9.641  -2.115  1.00  0.00    -0.283 N
ATOM     15  N   UNL     1      33.820  10.914  -2.486  1.00  0.00    -0.170 NA
ATOM     16  H   UNL     1      34.470   9.313  -1.451  1.00  0.00     0.189 HD
BRANCH  12  17
ATOM     17  N   UNL     1      31.068   9.331  -4.311  1.00  0.00    -0.304 N
ATOM     18  O   UNL     1      29.218  10.585  -3.735  1.00  0.00    -0.248 OA
ATOM     19  C   UNL     1      29.791   9.799  -4.475  1.00  0.00     0.319 C
ATOM     20  N   UNL     1      29.200   9.246  -5.595  1.00  0.00    -0.332 N
ATOM     21  H   UNL     1      31.249   8.432  -4.734  1.00  0.00     0.172 HD
ATOM     22  H   UNL     1      29.786   8.753  -6.253  1.00  0.00     0.165 HD
BRANCH  20  23
ATOM     23  C   UNL     1      27.818   9.437  -5.958  1.00  0.00     0.042 C
ATOM     24  C   UNL     1      27.423  10.808  -6.477  1.00  0.00     0.031 C
ATOM     25  C   UNL     1      27.491   9.647  -7.422  1.00  0.00     0.031 C
BRANCH  23  26
ATOM     26  C   UNL     1      26.780   8.692  -5.127  1.00  0.00     0.031 C
BRANCH  26  27
ATOM     27  C   UNL     1      26.465   7.294  -5.670  1.00  0.00     0.031 C
ATOM     28  G   UNL     1      25.069   6.811  -5.271  1.00  0.00     0.000 C
ENDBRANCH  26  27
ENDBRANCH  23  26
ENDBRANCH  20  23
ENDBRANCH  12  17
ENDBRANCH   1  11
BRANCH   6  29
ATOM     29  C   UNL     1      32.190  18.416  -5.081  1.00  0.00     0.120 C
BRANCH  29  30
ATOM     30  N   UNL     1      30.903  19.114  -4.851  1.00  0.00    -0.291 NA
ATOM     31  C   UNL     1      31.108  20.242  -3.921  1.00  0.00     0.113 C
ATOM     32  C   UNL     1      30.297  19.623  -6.116  1.00  0.00     0.085 C
ATOM     33  C   UNL     1      31.952  21.396  -4.501  1.00  0.00     0.175 C
ATOM     34  C   UNL     1      30.523  21.140  -6.368  1.00  0.00     0.179 C
ATOM     35  O   UNL     1      31.816  21.554  -5.921  1.00  0.00    -0.378 OA
BRANCH  32  36
ATOM     36  C   UNL     1      28.786  19.321  -6.062  1.00  0.00     0.050 C
BRANCH  36  37
ATOM     37  C   UNL     1      28.434  18.151  -5.149  1.00  0.00     0.162 C
BRANCH  37  38
ATOM     38  O   UNL     1      27.460  17.365  -5.833  1.00  0.00    -0.381 OA
BRANCH  38  39
ATOM     39  C   UNL     1      26.972  16.262  -5.078  1.00  0.00     0.160 C
ATOM     40  G   UNL     1      27.616  14.944  -5.511  1.00  0.00     0.000 C
ENDBRANCH  38  39
ENDBRANCH  37  38
ENDBRANCH  36  37
ENDBRANCH  32  36
ENDBRANCH  29  30
ENDBRANCH   6  29
TORSDOF 0
ENDMDL
MODEL 7
REMARK VINA RESULT:      -7.3      3.329      9.054
REMARK SMILES O=C1Nc2c[nH]nc2-c2nc3ccc(cc3[nH]2)CN2CCOC[C@@H]2CCOCCCC2(CC2)N1
REMARK SMILES IDX 9 1 10 2 11 3 12 4 13 5 14 6 15 7 16 8 17 9 8 11 4 12 5 13
REMARK SMILES IDX 6 14 7 15 3 17 1 18 2 19 34 20 31 23 32 24 33 25 30 26 29 27
REMARK SMILES IDX 18 29 19 30 20 31 24 32 21 33 23 34 22 35 25 36 26 37 27 38
REMARK SMILES IDX 28 39
REMARK H PARENT 17 10 6 16 3 21 34 22
REMARK Flexibility Score:   58.900
ROOT
ATOM      1  C   UNL     1      30.513   8.478  -4.555  1.00  0.00     0.161 A
ATOM      2  N   UNL     1      31.498   8.679  -3.692  1.00  0.00    -0.227 NA
ATOM      3  C   UNL     1      31.856   9.994  -3.828  1.00  0.00     0.089 A
ATOM      4  C   UNL     1      32.892  10.714  -3.221  1.00  0.00     0.031 A
ATOM      5  C   UNL     1      33.072  12.058  -3.579  1.00  0.00     0.007 A
ATOM      6  C   UNL     1      32.221  12.699  -4.501  1.00  0.00    -0.032 A
ATOM      7  C   UNL     1      31.131  11.996  -5.042  1.00  0.00     0.033 A
ATOM      8  C   UNL     1      31.022  10.641  -4.724  1.00  0.00     0.066 A
ATOM      9  N   UNL     1      30.172   9.658  -5.155  1.00  0.00    -0.337 N
ATOM     10  H   UNL     1      29.406   9.783  -5.803  1.00  0.00     0.168 HD
ENDROOT
BRANCH   1  11
ATOM     11  C   UNL     1      29.875   7.054  -4.827  1.00  0.00     0.151 A
ATOM     12  C   UNL     1      28.988   6.560  -5.842  1.00  0.00     0.092 A
ATOM     13  C   UNL     1      28.873   5.211  -5.558  1.00  0.00     0.132 A
ATOM     14  N   UNL     1      29.630   4.975  -4.456  1.00  0.00    -0.283 N
ATOM     15  N   UNL     1      30.266   6.052  -4.014  1.00  0.00    -0.170 NA
ATOM     16  H   UNL     1      29.776   4.099  -3.962  1.00  0.00     0.189 HD
BRANCH  12  17
ATOM     17  N   UNL     1      28.352   7.037  -6.978  1.00  0.00    -0.304 N
ATOM     18  O   UNL     1      27.131   8.857  -6.254  1.00  0.00    -0.248 OA
ATOM     19  C   UNL     1      27.615   8.179  -7.148  1.00  0.00     0.319 C
ATOM     20  N   UNL     1      27.460   8.473  -8.489  1.00  0.00    -0.332 N
ATOM     21  H   UNL     1      28.334   6.399  -7.759  1.00  0.00     0.172 HD
ATOM     22  H   UNL     1      28.033   7.980  -9.158  1.00  0.00     0.165 HD
BRANCH  20  23
ATOM     23  C   UNL     1      26.623   9.534  -8.993  1.00  0.00     0.042 C
ATOM     24  C   UNL     1      25.725   9.206 -10.171  1.00  0.00     0.031 C
ATOM     25  C   UNL     1      25.125   9.403  -8.814  1.00  0.00     0.031 C
BRANCH  23  26
ATOM     26  C   UNL     1      27.196  10.945  -8.936  1.00  0.00     0.031 C
BRANCH  26  27
ATOM     27  C   UNL     1      26.385  11.890  -8.041  1.00  0.00     0.031 C
ATOM     28  G   UNL     1      25.833  13.093  -8.806  1.00  0.00     0.000 C
ENDBRANCH  26  27
ENDBRANCH  23  26
ENDBRANCH  20  23
ENDBRANCH  12  17
ENDBRANCH   1  11
BRANCH   6  29
ATOM     29  C   UNL     1      32.503  14.153  -4.854  1.00  0.00     0.120 C
BRANCH  29  30
ATOM     30  N   UNL     1      31.430  15.122  -4.531  1.00  0.00    -0.291 NA
ATOM     31  C   UNL     1      32.025  16.364  -3.997  1.00  0.00     0.113 C
ATOM     32  C   UNL     1      30.584  15.453  -5.716  1.00  0.00     0.085 C
ATOM     33  C   UNL     1      32.833  17.175  -5.032  1.00  0.00     0.175 C
ATOM     34  C   UNL     1      30.939  16.803  -6.399  1.00  0.00     0.179 C
ATOM     35  O   UNL     1      32.348  17.043  -6.376  1.00  0.00    -0.378 OA
BRANCH  32  36
ATOM     36  C   UNL     1      29.115  15.471  -5.248  1.00  0.00     0.050 C
BRANCH  36  37
ATOM     37  C   UNL     1      28.250  14.414  -5.927  1.00  0.00     0.162 C
BRANCH  37  38
ATOM     38  O   UNL     1      27.004  15.033  -6.240  1.00  0.00    -0.381 OA
BRANCH  38  39
ATOM     39  C   UNL     1      26.138  15.189  -5.122  1.00  0.00     0.160 C
ATOM     40  G   UNL     1      25.069  14.095  -5.071  1.00  0.00     0.000 C
ENDBRANCH  38  39
ENDBRANCH  37  38
ENDBRANCH  36  37
ENDBRANCH  32  36
ENDBRANCH  29  30
ENDBRANCH   6  29
TORSDOF 0
ENDMDL
MODEL 8
REMARK VINA RESULT:      -7.3      2.327      8.861
REMARK SMILES O=C1Nc2c[nH]nc2-c2nc3ccc(cc3[nH]2)CN2CCOC[C@@H]2CCOCCCC2(CC2)N1
REMARK SMILES IDX 9 1 10 2 11 3 12 4 13 5 14 6 15 7 16 8 17 9 8 11 4 12 5 13
REMARK SMILES IDX 6 14 7 15 3 17 1 18 2 19 34 20 31 23 32 24 33 25 30 26 29 27
REMARK SMILES IDX 18 29 19 30 20 31 24 32 21 33 23 34 22 35 25 36 26 37 27 38
REMARK SMILES IDX 28 39
REMARK H PARENT 17 10 6 16 3 21 34 22
REMARK Flexibility Score:   58.900
ROOT
ATOM      1  C   UNL     1      32.636  12.277  -3.441  1.00  0.00     0.161 A
ATOM      2  N   UNL     1      33.387  13.346  -3.223  1.00  0.00    -0.227 NA
ATOM      3  C   UNL     1      32.775  14.378  -3.884  1.00  0.00     0.089 A
ATOM      4  C   UNL     1      33.183  15.707  -4.056  1.00  0.00     0.031 A
ATOM      5  C   UNL     1      32.381  16.557  -4.830  1.00  0.00     0.007 A
ATOM      6  C   UNL     1      31.172  16.116  -5.405  1.00  0.00    -0.032 A
ATOM      7  C   UNL     1      30.726  14.806  -5.159  1.00  0.00     0.033 A
ATOM      8  C   UNL     1      31.580  13.963  -4.446  1.00  0.00     0.066 A
ATOM      9  N   UNL     1      31.513  12.631  -4.134  1.00  0.00    -0.337 N
ATOM     10  H   UNL     1      30.750  12.009  -4.367  1.00  0.00     0.168 HD
ENDROOT
BRANCH   1  11
ATOM     11  C   UNL     1      33.039  10.822  -2.964  1.00  0.00     0.151 A
ATOM     12  C   UNL     1      32.351   9.561  -2.985  1.00  0.00     0.092 A
ATOM     13  C   UNL     1      33.281   8.664  -2.491  1.00  0.00     0.132 A
ATOM     14  N   UNL     1      34.400   9.376  -2.202  1.00  0.00    -0.283 N
ATOM     15  N   UNL     1      34.296  10.664  -2.503  1.00  0.00    -0.170 NA
ATOM     16  H   UNL     1      35.279   9.046  -1.816  1.00  0.00     0.189 HD
BRANCH  12  17
ATOM     17  N   UNL     1      31.135   9.058  -3.420  1.00  0.00    -0.304 N
ATOM     18  O   UNL     1      30.661  10.234  -5.349  1.00  0.00    -0.248 OA
ATOM     19  C   UNL     1      30.459   9.300  -4.587  1.00  0.00     0.319 C
ATOM     20  N   UNL     1      29.480   8.348  -4.799  1.00  0.00    -0.332 N
ATOM     21  H   UNL     1      30.620   8.527  -2.733  1.00  0.00     0.172 HD
ATOM     22  H   UNL     1      29.492   7.513  -4.232  1.00  0.00     0.165 HD
BRANCH  20  23
ATOM     23  C   UNL     1      28.514   8.406  -5.869  1.00  0.00     0.042 C
ATOM     24  C   UNL     1      27.048   8.359  -5.480  1.00  0.00     0.031 C
ATOM     25  C   UNL     1      27.644   9.641  -5.973  1.00  0.00     0.031 C
BRANCH  23  26
ATOM     26  C   UNL     1      28.900   7.731  -7.179  1.00  0.00     0.031 C
BRANCH  26  27
ATOM     27  C   UNL     1      29.449   6.312  -6.989  1.00  0.00     0.031 C
ATOM     28  G   UNL     1      28.612   5.257  -7.715  1.00  0.00     0.000 C
ENDBRANCH  26  27
ENDBRANCH  23  26
ENDBRANCH  20  23
ENDBRANCH  12  17
ENDBRANCH   1  11
BRANCH   6  29
ATOM     29  C   UNL     1      30.376  17.097  -6.255  1.00  0.00     0.120 C
BRANCH  29  30
ATOM     30  N   UNL     1      29.077  17.539  -5.695  1.00  0.00    -0.291 NA
ATOM     31  C   UNL     1      29.256  18.811  -4.967  1.00  0.00     0.113 C
ATOM     32  C   UNL     1      28.033  17.717  -6.747  1.00  0.00     0.085 C
ATOM     33  C   UNL     1      29.596  20.015  -5.872  1.00  0.00     0.175 C
ATOM     34  C   UNL     1      27.805  19.192  -7.178  1.00  0.00     0.179 C
ATOM     35  O   UNL     1      29.031  19.927  -7.188  1.00  0.00    -0.378 OA
BRANCH  32  36
ATOM     36  C   UNL     1      26.720  17.119  -6.205  1.00  0.00     0.050 C
BRANCH  36  37
ATOM     37  C   UNL     1      26.935  15.944  -5.258  1.00  0.00     0.162 C
BRANCH  37  38
ATOM     38  O   UNL     1      25.658  15.343  -5.041  1.00  0.00    -0.381 OA
BRANCH  38  39
ATOM     39  C   UNL     1      25.551  14.017  -5.545  1.00  0.00     0.160 C
ATOM     40  G   UNL     1      26.919  13.350  -5.697  1.00  0.00     0.000 C
ENDBRANCH  38  39
ENDBRANCH  37  38
ENDBRANCH  36  37
ENDBRANCH  32  36
ENDBRANCH  29  30
ENDBRANCH   6  29
TORSDOF 0
ENDMDL
MODEL 9
REMARK VINA RESULT:      -7.3      2.411      9.295
REMARK SMILES O=C1Nc2c[nH]nc2-c2nc3ccc(cc3[nH]2)CN2CCOC[C@@H]2CCOCCCC2(CC2)N1
REMARK SMILES IDX 9 1 10 2 11 3 12 4 13 5 14 6 15 7 16 8 17 9 8 11 4 12 5 13
REMARK SMILES IDX 6 14 7 15 3 17 1 18 2 19 34 20 31 23 32 24 33 25 30 26 29 27
REMARK SMILES IDX 18 29 19 30 20 31 24 32 21 33 23 34 22 35 25 36 26 37 27 38
REMARK SMILES IDX 28 39
REMARK H PARENT 17 10 6 16 3 21 34 22
REMARK Flexibility Score:   58.900
ROOT
ATOM      1  C   UNL     1      28.951  11.202  -5.292  1.00  0.00     0.161 A
ATOM      2  N   UNL     1      27.650  11.428  -5.393  1.00  0.00    -0.227 NA
ATOM      3  C   UNL     1      27.499  12.789  -5.367  1.00  0.00     0.089 A
ATOM      4  C   UNL     1      26.336  13.567  -5.359  1.00  0.00     0.031 A
ATOM      5  C   UNL     1      26.464  14.961  -5.280  1.00  0.00     0.007 A
ATOM      6  C   UNL     1      27.726  15.588  -5.241  1.00  0.00    -0.032 A
ATOM      7  C   UNL     1      28.890  14.806  -5.335  1.00  0.00     0.033 A
ATOM      8  C   UNL     1      28.731  13.420  -5.339  1.00  0.00     0.066 A
ATOM      9  N   UNL     1      29.631  12.388  -5.308  1.00  0.00    -0.337 N
ATOM     10  H   UNL     1      30.638  12.483  -5.310  1.00  0.00     0.168 HD
ENDROOT
BRANCH   1  11
ATOM     11  C   UNL     1      29.572   9.752  -5.153  1.00  0.00     0.151 A
ATOM     12  C   UNL     1      30.746   9.251  -4.493  1.00  0.00     0.092 A
ATOM     13  C   UNL     1      30.680   7.883  -4.686  1.00  0.00     0.132 A
ATOM     14  N   UNL     1      29.559   7.641  -5.412  1.00  0.00    -0.283 N
ATOM     15  N   UNL     1      28.859   8.737  -5.680  1.00  0.00    -0.170 NA
ATOM     16  H   UNL     1      29.197   6.752  -5.744  1.00  0.00     0.189 HD
BRANCH  12  17
ATOM     17  N   UNL     1      31.779   9.745  -3.712  1.00  0.00    -0.304 N
ATOM     18  O   UNL     1      32.350  11.758  -4.685  1.00  0.00    -0.248 OA
ATOM     19  C   UNL     1      32.396  10.967  -3.755  1.00  0.00     0.319 C
ATOM     20  N   UNL     1      33.117  11.200  -2.599  1.00  0.00    -0.332 N
ATOM     21  H   UNL     1      32.214   9.070  -3.101  1.00  0.00     0.172 HD
ATOM     22  H   UNL     1      32.963  10.592  -1.808  1.00  0.00     0.165 HD
BRANCH  20  23
ATOM     23  C   UNL     1      33.982  12.336  -2.400  1.00  0.00     0.042 C
ATOM     24  C   UNL     1      35.251  12.107  -1.599  1.00  0.00     0.031 C
ATOM     25  C   UNL     1      35.336  12.324  -3.078  1.00  0.00     0.031 C
BRANCH  23  26
ATOM     26  C   UNL     1      33.308  13.694  -2.247  1.00  0.00     0.031 C
BRANCH  26  27
ATOM     27  C   UNL     1      33.708  14.693  -3.338  1.00  0.00     0.031 C
ATOM     28  G   UNL     1      32.503  15.223  -4.118  1.00  0.00     0.000 C
ENDBRANCH  26  27
ENDBRANCH  23  26
ENDBRANCH  20  23
ENDBRANCH  12  17
ENDBRANCH   1  11
BRANCH   6  29
ATOM     29  C   UNL     1      27.776  17.106  -5.127  1.00  0.00     0.120 C
BRANCH  29  30
ATOM     30  N   UNL     1      28.673  17.801  -6.079  1.00  0.00    -0.291 NA
ATOM     31  C   UNL     1      28.108  17.725  -7.442  1.00  0.00     0.113 C
ATOM     32  C   UNL     1      28.889  19.233  -5.716  1.00  0.00     0.085 C
ATOM     33  C   UNL     1      26.810  18.537  -7.635  1.00  0.00     0.175 C
ATOM     34  C   UNL     1      28.031  20.237  -6.535  1.00  0.00     0.179 C
ATOM     35  O   UNL     1      26.732  19.707  -6.809  1.00  0.00    -0.378 OA
BRANCH  32  36
ATOM     36  C   UNL     1      30.387  19.541  -5.914  1.00  0.00     0.050 C
BRANCH  36  37
ATOM     37  C   UNL     1      31.184  19.530  -4.613  1.00  0.00     0.162 C
BRANCH  37  38
ATOM     38  O   UNL     1      32.543  19.802  -4.954  1.00  0.00    -0.381 OA
BRANCH  38  39
ATOM     39  C   UNL     1      33.056  18.973  -5.990  1.00  0.00     0.160 C
ATOM     40  G   UNL     1      34.066  19.716  -6.867  1.00  0.00     0.000 C
ENDBRANCH  38  39
ENDBRANCH  37  38
ENDBRANCH  36  37
ENDBRANCH  32  36
ENDBRANCH  29  30
ENDBRANCH   6  29
TORSDOF 0
ENDMDL
