MODEL 1
REMARK VINA RESULT:      -8.2      0.000      0.000
REMARK SMILES Cc1cnc2nc1-c1cccc(c1)COCC=C1CNC[C@H]3CCN(CCOc4ccc(cc4COC1)N2)C3
REMARK SMILES IDX 29 1 30 2 31 3 32 4 33 5 34 6 38 7 5 9 2 10 3 11 7 12 4 13
REMARK SMILES IDX 6 14 1 15 8 16 9 17 13 18 10 19 12 20 11 21 14 22 15 23
REMARK SMILES IDX 16 24 35 26 36 27 37 28 18 29 17 30 19 32 20 33 21 35 28 37
REMARK SMILES IDX 27 38 26 39 25 40 24 41 39 42 23 43 22 44
REMARK H PARENT 38 8 20 34
REMARK Flexibility Score:  100.800
ROOT
ATOM      1  C   UNL     1      30.634  16.796  -4.197  1.00  0.00     0.125 A
ATOM      2  C   UNL     1      30.519  16.002  -3.055  1.00  0.00     0.049 A
ATOM      3  C   UNL     1      31.625  15.305  -2.556  1.00  0.00     0.030 A
ATOM      4  C   UNL     1      32.874  15.372  -3.184  1.00  0.00     0.042 A
ATOM      5  C   UNL     1      32.985  16.176  -4.321  1.00  0.00     0.036 A
ATOM      6  C   UNL     1      31.896  16.937  -4.800  1.00  0.00     0.022 A
ENDROOT
BRANCH   4   7
ATOM      7  N   UNL     1      33.926  14.613  -2.670  1.00  0.00    -0.324 N
ATOM      8  H   UNL     1      34.704  15.110  -2.266  1.00  0.00     0.170 HD
BRANCH   7   9
ATOM      9  C   UNL     1      34.165  13.245  -2.610  1.00  0.00     0.227 A
ATOM     10  C   UNL     1      34.697  10.583  -2.307  1.00  0.00    -0.006 A
ATOM     11  C   UNL     1      35.525  11.575  -1.826  1.00  0.00     0.120 A
ATOM     12  C   UNL     1      33.544  11.041  -2.926  1.00  0.00     0.079 A
ATOM     13  N   UNL     1      35.276  12.892  -1.948  1.00  0.00    -0.221 NA
ATOM     14  N   UNL     1      33.299  12.359  -3.114  1.00  0.00    -0.212 NA
ATOM     15  C   UNL     1      35.039   9.142  -2.113  1.00  0.00     0.048 C
BRANCH  12  16
ATOM     16  C   UNL     1      32.468  10.158  -3.405  1.00  0.00     0.001 A
ATOM     17  C   UNL     1      32.455   8.788  -3.094  1.00  0.00     0.010 A
ATOM     18  C   UNL     1      31.392  10.677  -4.146  1.00  0.00     0.016 A
ATOM     19  C   UNL     1      31.413   7.961  -3.519  1.00  0.00     0.001 A
ATOM     20  C   UNL     1      30.338   9.856  -4.578  1.00  0.00    -0.022 A
ATOM     21  C   UNL     1      30.358   8.494  -4.255  1.00  0.00     0.006 A
BRANCH  20  22
ATOM     22  C   UNL     1      29.169  10.438  -5.331  1.00  0.00     0.196 C
BRANCH  22  23
ATOM     23  O   UNL     1      27.951   9.778  -4.993  1.00  0.00    -0.373 OA
BRANCH  23  24
ATOM     24  C   UNL     1      27.272   9.285  -6.153  1.00  0.00     0.188 C
ATOM     25  G   UNL     1      28.302   8.753  -7.100  1.00  0.00     0.000 C
ENDBRANCH  23  24
ENDBRANCH  22  23
ENDBRANCH  20  22
ENDBRANCH  12  16
ENDBRANCH   7   9
ENDBRANCH   4   7
BRANCH   6  26
ATOM     26  C   UNL     1      32.151  17.941  -5.901  1.00  0.00     0.200 C
BRANCH  26  27
ATOM     27  O   UNL     1      32.934  19.061  -5.487  1.00  0.00    -0.372 OA
BRANCH  27  28
ATOM     28  C   UNL     1      32.641  20.224  -6.257  1.00  0.00     0.193 C
BRANCH  28  29
ATOM     29  C   UNL     1      31.352  20.913  -5.836  1.00  0.00    -0.033 C
ATOM     30  C   UNL     1      31.227  21.782  -4.806  1.00  0.00     0.004 C
ATOM     31  G   UNL     1      32.327  22.271  -3.916  1.00  0.00     0.000 C
BRANCH  29  32
ATOM     32  C   UNL     1      30.111  20.510  -6.627  1.00  0.00     0.114 C
BRANCH  32  33
ATOM     33  N   UNL     1      28.896  20.374  -5.815  1.00  0.00    -0.313 NA
ATOM     34  H   UNL     1      29.026  20.943  -4.981  1.00  0.00     0.123 HD
BRANCH  33  35
ATOM     35  C   UNL     1      27.696  20.774  -6.549  1.00  0.00     0.086 C
ATOM     36  G   UNL     1      27.629  20.363  -8.040  1.00  0.00     0.000 C
ENDBRANCH  33  35
ENDBRANCH  32  33
ENDBRANCH  29  32
ENDBRANCH  28  29
ENDBRANCH  27  28
ENDBRANCH  26  27
ENDBRANCH   6  26
BRANCH   1  37
ATOM     37  O   UNL     1      29.595  17.470  -4.778  1.00  0.00    -0.492 OA
BRANCH  37  38
ATOM     38  C   UNL     1      28.289  16.871  -4.820  1.00  0.00     0.245 C
BRANCH  38  39
ATOM     39  C   UNL     1      27.551  17.027  -6.169  1.00  0.00     0.126 C
BRANCH  39  40
ATOM     40  N   UNL     1      27.087  15.750  -6.698  1.00  0.00    -0.300 NA
ATOM     41  C   UNL     1      26.437  14.897  -5.707  1.00  0.00     0.085 C
ATOM     42  C   UNL     1      26.176  15.813  -7.841  1.00  0.00     0.089 C
ATOM     43  C   UNL     1      25.635  13.903  -6.542  1.00  0.00     0.022 C
ATOM     44  C   UNL     1      25.847  14.321  -8.005  1.00  0.00     0.018 C
ATOM     45  G   UNL     1      27.019  13.640  -8.752  1.00  0.00     0.000 C
ENDBRANCH  39  40
ENDBRANCH  38  39
ENDBRANCH  37  38
ENDBRANCH   1  37
TORSDOF 0
ENDMDL
MODEL 2
REMARK VINA RESULT:      -8.1      2.439      5.946
REMARK SMILES Cc1cnc2nc1-c1cccc(c1)COCC=C1CNC[C@H]3CCN(CCOc4ccc(cc4COC1)N2)C3
REMARK SMILES IDX 29 1 30 2 31 3 32 4 33 5 34 6 38 7 5 9 2 10 3 11 7 12 4 13
REMARK SMILES IDX 6 14 1 15 8 16 9 17 13 18 10 19 12 20 11 21 14 22 15 23
REMARK SMILES IDX 16 24 35 26 36 27 37 28 18 29 17 30 19 32 20 33 21 35 28 37
REMARK SMILES IDX 27 38 26 39 25 40 24 41 39 42 23 43 22 44
REMARK H PARENT 38 8 20 34
REMARK Flexibility Score:  100.800
ROOT
ATOM      1  C   UNL     1      27.416  15.770  -5.285  1.00  0.00     0.125 A
ATOM      2  C   UNL     1      26.169  15.150  -5.198  1.00  0.00     0.049 A
ATOM      3  C   UNL     1      26.042  13.770  -5.394  1.00  0.00     0.030 A
ATOM      4  C   UNL     1      27.152  12.970  -5.691  1.00  0.00     0.042 A
ATOM      5  C   UNL     1      28.399  13.595  -5.768  1.00  0.00     0.036 A
ATOM      6  C   UNL     1      28.554  14.975  -5.509  1.00  0.00     0.022 A
ENDROOT
BRANCH   4   7
ATOM      7  N   UNL     1      26.954  11.609  -5.929  1.00  0.00    -0.324 N
ATOM      8  H   UNL     1      26.060  11.328  -6.299  1.00  0.00     0.170 HD
BRANCH   7   9
ATOM      9  C   UNL     1      27.751  10.488  -5.732  1.00  0.00     0.227 A
ATOM     10  C   UNL     1      29.304   8.249  -5.539  1.00  0.00    -0.006 A
ATOM     11  C   UNL     1      28.174   8.316  -6.327  1.00  0.00     0.120 A
ATOM     12  C   UNL     1      29.618   9.426  -4.878  1.00  0.00     0.079 A
ATOM     13  N   UNL     1      27.403   9.411  -6.451  1.00  0.00    -0.221 NA
ATOM     14  N   UNL     1      28.828  10.523  -4.939  1.00  0.00    -0.212 NA
ATOM     15  C   UNL     1      30.115   6.997  -5.471  1.00  0.00     0.048 C
BRANCH  12  16
ATOM     16  C   UNL     1      30.841   9.614  -4.081  1.00  0.00     0.001 A
ATOM     17  C   UNL     1      31.344   8.588  -3.262  1.00  0.00     0.010 A
ATOM     18  C   UNL     1      31.571  10.812  -4.159  1.00  0.00     0.016 A
ATOM     19  C   UNL     1      32.524   8.757  -2.536  1.00  0.00     0.001 A
ATOM     20  C   UNL     1      32.760  10.994  -3.436  1.00  0.00    -0.022 A
ATOM     21  C   UNL     1      33.230   9.953  -2.625  1.00  0.00     0.006 A
BRANCH  20  22
ATOM     22  C   UNL     1      33.554  12.268  -3.569  1.00  0.00     0.196 C
BRANCH  22  23
ATOM     23  O   UNL     1      33.960  12.765  -2.294  1.00  0.00    -0.373 OA
BRANCH  23  24
ATOM     24  C   UNL     1      35.381  12.910  -2.206  1.00  0.00     0.188 C
ATOM     25  G   UNL     1      35.895  11.865  -1.265  1.00  0.00     0.000 C
ENDBRANCH  23  24
ENDBRANCH  22  23
ENDBRANCH  20  22
ENDBRANCH  12  16
ENDBRANCH   7   9
ENDBRANCH   4   7
BRANCH   6  26
ATOM     26  C   UNL     1      29.956  15.531  -5.403  1.00  0.00     0.200 C
BRANCH  26  27
ATOM     27  O   UNL     1      30.978  14.570  -5.665  1.00  0.00    -0.372 OA
BRANCH  27  28
ATOM     28  C   UNL     1      32.272  15.073  -5.344  1.00  0.00     0.193 C
BRANCH  28  29
ATOM     29  C   UNL     1      32.232  16.311  -4.462  1.00  0.00    -0.033 C
ATOM     30  C   UNL     1      31.871  16.333  -3.157  1.00  0.00     0.004 C
ATOM     31  G   UNL     1      31.493  15.153  -2.318  1.00  0.00     0.000 C
BRANCH  29  32
ATOM     32  C   UNL     1      32.568  17.622  -5.165  1.00  0.00     0.114 C
BRANCH  32  33
ATOM     33  N   UNL     1      33.971  17.744  -5.577  1.00  0.00    -0.313 NA
ATOM     34  H   UNL     1      34.280  16.820  -5.871  1.00  0.00     0.123 HD
BRANCH  33  35
ATOM     35  C   UNL     1      34.147  18.727  -6.646  1.00  0.00     0.086 C
ATOM     36  G   UNL     1      33.433  20.086  -6.460  1.00  0.00     0.000 C
ENDBRANCH  33  35
ENDBRANCH  32  33
ENDBRANCH  29  32
ENDBRANCH  28  29
ENDBRANCH  27  28
ENDBRANCH  26  27
ENDBRANCH   6  26
BRANCH   1  37
ATOM     37  O   UNL     1      27.622  17.116  -5.156  1.00  0.00    -0.492 OA
BRANCH  37  38
ATOM     38  C   UNL     1      27.847  17.920  -6.326  1.00  0.00     0.245 C
BRANCH  38  39
ATOM     39  C   UNL     1      28.488  19.299  -6.047  1.00  0.00     0.126 C
BRANCH  39  40
ATOM     40  N   UNL     1      27.674  20.400  -6.550  1.00  0.00    -0.300 NA
ATOM     41  C   UNL     1      28.441  21.462  -7.193  1.00  0.00     0.085 C
ATOM     42  C   UNL     1      26.607  20.043  -7.486  1.00  0.00     0.089 C
ATOM     43  C   UNL     1      27.410  22.207  -8.034  1.00  0.00     0.022 C
ATOM     44  C   UNL     1      26.089  21.444  -7.848  1.00  0.00     0.018 C
ATOM     45  G   UNL     1      25.166  21.935  -6.708  1.00  0.00     0.000 C
ENDBRANCH  39  40
ENDBRANCH  38  39
ENDBRANCH  37  38
ENDBRANCH   1  37
TORSDOF 0
ENDMDL
MODEL 3
REMARK VINA RESULT:      -8.1      1.564      2.155
REMARK SMILES Cc1cnc2nc1-c1cccc(c1)COCC=C1CNC[C@H]3CCN(CCOc4ccc(cc4COC1)N2)C3
REMARK SMILES IDX 29 1 30 2 31 3 32 4 33 5 34 6 38 7 5 9 2 10 3 11 7 12 4 13
REMARK SMILES IDX 6 14 1 15 8 16 9 17 13 18 10 19 12 20 11 21 14 22 15 23
REMARK SMILES IDX 16 24 35 26 36 27 37 28 18 29 17 30 19 32 20 33 21 35 28 37
REMARK SMILES IDX 27 38 26 39 25 40 24 41 39 42 23 43 22 44
REMARK H PARENT 38 8 20 34
REMARK Flexibility Score:  100.800
ROOT
ATOM      1  C   UNL     1      30.477  17.042  -4.597  1.00  0.00     0.125 A
ATOM      2  C   UNL     1      30.513  16.445  -3.336  1.00  0.00     0.049 A
ATOM      3  C   UNL     1      31.543  15.561  -2.994  1.00  0.00     0.030 A
ATOM      4  C   UNL     1      32.560  15.241  -3.900  1.00  0.00     0.042 A
ATOM      5  C   UNL     1      32.524  15.849  -5.157  1.00  0.00     0.036 A
ATOM      6  C   UNL     1      31.529  16.792  -5.496  1.00  0.00     0.022 A
ENDROOT
BRANCH   4   7
ATOM      7  N   UNL     1      33.530  14.312  -3.519  1.00  0.00    -0.324 N
ATOM      8  H   UNL     1      34.466  14.654  -3.366  1.00  0.00     0.170 HD
BRANCH   7   9
ATOM      9  C   UNL     1      33.498  12.938  -3.318  1.00  0.00     0.227 A
ATOM     10  C   UNL     1      33.483  10.269  -2.736  1.00  0.00    -0.006 A
ATOM     11  C   UNL     1      34.441  11.139  -2.258  1.00  0.00     0.120 A
ATOM     12  C   UNL     1      32.497  10.863  -3.508  1.00  0.00     0.079 A
ATOM     13  N   UNL     1      34.460  12.458  -2.518  1.00  0.00    -0.221 NA
ATOM     14  N   UNL     1      32.525  12.177  -3.833  1.00  0.00    -0.212 NA
ATOM     15  C   UNL     1      33.526   8.818  -2.385  1.00  0.00     0.048 C
BRANCH  12  16
ATOM     16  C   UNL     1      31.317  10.146  -4.020  1.00  0.00     0.001 A
ATOM     17  C   UNL     1      30.112  10.819  -4.282  1.00  0.00     0.010 A
ATOM     18  C   UNL     1      31.383   8.773  -4.311  1.00  0.00     0.016 A
ATOM     19  C   UNL     1      29.006  10.144  -4.802  1.00  0.00     0.001 A
ATOM     20  C   UNL     1      30.279   8.083  -4.835  1.00  0.00    -0.022 A
ATOM     21  C   UNL     1      29.091   8.782  -5.080  1.00  0.00     0.006 A
BRANCH  20  22
ATOM     22  C   UNL     1      30.382   6.620  -5.186  1.00  0.00     0.196 C
BRANCH  22  23
ATOM     23  O   UNL     1      29.623   5.814  -4.286  1.00  0.00    -0.373 OA
BRANCH  23  24
ATOM     24  C   UNL     1      28.624   5.049  -4.969  1.00  0.00     0.188 C
ATOM     25  G   UNL     1      28.985   5.009  -6.421  1.00  0.00     0.000 C
ENDBRANCH  23  24
ENDBRANCH  22  23
ENDBRANCH  20  22
ENDBRANCH  12  16
ENDBRANCH   7   9
ENDBRANCH   4   7
BRANCH   6  26
ATOM     26  C   UNL     1      31.679  17.562  -6.789  1.00  0.00     0.200 C
BRANCH  26  27
ATOM     27  O   UNL     1      32.638  18.618  -6.720  1.00  0.00    -0.372 OA
BRANCH  27  28
ATOM     28  C   UNL     1      32.894  19.012  -5.375  1.00  0.00     0.193 C
BRANCH  28  29
ATOM     29  C   UNL     1      32.568  20.473  -5.106  1.00  0.00    -0.033 C
ATOM     30  C   UNL     1      33.336  21.528  -5.467  1.00  0.00     0.004 C
ATOM     31  G   UNL     1      34.618  21.473  -6.237  1.00  0.00     0.000 C
BRANCH  29  32
ATOM     32  C   UNL     1      31.295  20.718  -4.302  1.00  0.00     0.114 C
BRANCH  32  33
ATOM     33  N   UNL     1      30.369  21.677  -4.914  1.00  0.00    -0.313 NA
ATOM     34  H   UNL     1      30.845  22.576  -4.947  1.00  0.00     0.123 HD
BRANCH  33  35
ATOM     35  C   UNL     1      29.941  21.255  -6.247  1.00  0.00     0.086 C
ATOM     36  G   UNL     1      28.623  21.867  -6.777  1.00  0.00     0.000 C
ENDBRANCH  33  35
ENDBRANCH  32  33
ENDBRANCH  29  32
ENDBRANCH  28  29
ENDBRANCH  27  28
ENDBRANCH  26  27
ENDBRANCH   6  26
BRANCH   1  37
ATOM     37  O   UNL     1      29.483  17.877  -5.029  1.00  0.00    -0.492 OA
BRANCH  37  38
ATOM     38  C   UNL     1      28.107  17.526  -4.805  1.00  0.00     0.245 C
BRANCH  38  39
ATOM     39  C   UNL     1      27.785  16.027  -4.998  1.00  0.00     0.126 C
BRANCH  39  40
ATOM     40  N   UNL     1      27.392  15.716  -6.367  1.00  0.00    -0.300 NA
ATOM     41  C   UNL     1      27.656  16.790  -7.320  1.00  0.00     0.085 C
ATOM     42  C   UNL     1      27.969  14.504  -6.949  1.00  0.00     0.089 C
ATOM     43  C   UNL     1      27.637  16.094  -8.678  1.00  0.00     0.022 C
ATOM     44  C   UNL     1      27.416  14.603  -8.380  1.00  0.00     0.018 C
ATOM     45  G   UNL     1      25.949  14.113  -8.372  1.00  0.00     0.000 C
ENDBRANCH  39  40
ENDBRANCH  38  39
ENDBRANCH  37  38
ENDBRANCH   1  37
TORSDOF 0
ENDMDL
MODEL 4
REMARK VINA RESULT:      -7.9      2.464      6.368
REMARK SMILES Cc1cnc2nc1-c1cccc(c1)COCC=C1CNC[C@H]3CCN(CCOc4ccc(cc4COC1)N2)C3
REMARK SMILES IDX 29 1 30 2 31 3 32 4 33 5 34 6 38 7 5 9 2 10 3 11 7 12 4 13
REMARK SMILES IDX 6 14 1 15 8 16 9 17 13 18 10 19 12 20 11 21 14 22 15 23
REMARK SMILES IDX 16 24 35 26 36 27 37 28 18 29 17 30 19 32 20 33 21 35 28 37
REMARK SMILES IDX 27 38 26 39 25 40 24 41 39 42 23 43 22 44
REMARK H PARENT 38 8 20 34
REMARK Flexibility Score:  100.800
ROOT
ATOM      1  C   UNL     1      29.481  16.180  -5.569  1.00  0.00     0.125 A
ATOM      2  C   UNL     1      30.308  15.076  -5.778  1.00  0.00     0.049 A
ATOM      3  C   UNL     1      29.801  13.775  -5.682  1.00  0.00     0.030 A
ATOM      4  C   UNL     1      28.458  13.537  -5.366  1.00  0.00     0.042 A
ATOM      5  C   UNL     1      27.633  14.646  -5.167  1.00  0.00     0.036 A
ATOM      6  C   UNL     1      28.113  15.965  -5.324  1.00  0.00     0.022 A
ENDROOT
BRANCH   4   7
ATOM      7  N   UNL     1      28.024  12.217  -5.231  1.00  0.00    -0.324 N
ATOM      8  H   UNL     1      27.030  12.051  -5.249  1.00  0.00     0.170 HD
BRANCH   7   9
ATOM      9  C   UNL     1      28.694  11.015  -5.041  1.00  0.00     0.227 A
ATOM     10  C   UNL     1      29.983   8.613  -4.857  1.00  0.00    -0.006 A
ATOM     11  C   UNL     1      28.830   8.795  -5.591  1.00  0.00     0.120 A
ATOM     12  C   UNL     1      30.466   9.760  -4.247  1.00  0.00     0.079 A
ATOM     13  N   UNL     1      28.186   9.970  -5.710  1.00  0.00    -0.221 NA
ATOM     14  N   UNL     1      29.807  10.942  -4.302  1.00  0.00    -0.212 NA
ATOM     15  C   UNL     1      30.645   7.276  -4.792  1.00  0.00     0.048 C
BRANCH  12  16
ATOM     16  C   UNL     1      31.742   9.822  -3.516  1.00  0.00     0.001 A
ATOM     17  C   UNL     1      32.247   8.701  -2.834  1.00  0.00     0.010 A
ATOM     18  C   UNL     1      32.518  10.993  -3.524  1.00  0.00     0.016 A
ATOM     19  C   UNL     1      33.475   8.752  -2.172  1.00  0.00     0.001 A
ATOM     20  C   UNL     1      33.755  11.056  -2.864  1.00  0.00    -0.022 A
ATOM     21  C   UNL     1      34.227   9.923  -2.191  1.00  0.00     0.006 A
BRANCH  20  22
ATOM     22  C   UNL     1      34.596  12.306  -2.924  1.00  0.00     0.196 C
BRANCH  22  23
ATOM     23  O   UNL     1      34.079  13.324  -2.068  1.00  0.00    -0.373 OA
BRANCH  23  24
ATOM     24  C   UNL     1      32.928  13.961  -2.633  1.00  0.00     0.188 C
ATOM     25  G   UNL     1      33.388  15.188  -3.355  1.00  0.00     0.000 C
ENDBRANCH  23  24
ENDBRANCH  22  23
ENDBRANCH  20  22
ENDBRANCH  12  16
ENDBRANCH   7   9
ENDBRANCH   4   7
BRANCH   6  26
ATOM     26  C   UNL     1      27.114  17.100  -5.303  1.00  0.00     0.200 C
BRANCH  26  27
ATOM     27  O   UNL     1      26.228  17.106  -6.422  1.00  0.00    -0.372 OA
BRANCH  27  28
ATOM     28  C   UNL     1      26.212  18.373  -7.075  1.00  0.00     0.193 C
BRANCH  28  29
ATOM     29  C   UNL     1      26.460  18.278  -8.573  1.00  0.00    -0.033 C
ATOM     30  C   UNL     1      26.566  19.329  -9.419  1.00  0.00     0.004 C
ATOM     31  G   UNL     1      26.512  20.778  -9.048  1.00  0.00     0.000 C
BRANCH  29  32
ATOM     32  C   UNL     1      26.519  16.860  -9.134  1.00  0.00     0.114 C
BRANCH  32  33
ATOM     33  N   UNL     1      25.206  16.244  -9.358  1.00  0.00    -0.313 NA
ATOM     34  H   UNL     1      25.041  16.245 -10.363  1.00  0.00     0.123 HD
BRANCH  33  35
ATOM     35  C   UNL     1      25.132  14.890  -8.809  1.00  0.00     0.086 C
ATOM     36  G   UNL     1      24.821  13.754  -9.812  1.00  0.00     0.000 C
ENDBRANCH  33  35
ENDBRANCH  32  33
ENDBRANCH  29  32
ENDBRANCH  28  29
ENDBRANCH  27  28
ENDBRANCH  26  27
ENDBRANCH   6  26
BRANCH   1  37
ATOM     37  O   UNL     1      29.905  17.480  -5.596  1.00  0.00    -0.492 OA
BRANCH  37  38
ATOM     38  C   UNL     1      31.100  17.857  -4.893  1.00  0.00     0.245 C
BRANCH  38  39
ATOM     39  C   UNL     1      31.139  19.332  -4.431  1.00  0.00     0.126 C
BRANCH  39  40
ATOM     40  N   UNL     1      32.330  20.029  -4.901  1.00  0.00    -0.300 NA
ATOM     41  C   UNL     1      33.223  19.203  -5.708  1.00  0.00     0.085 C
ATOM     42  C   UNL     1      32.105  21.255  -5.668  1.00  0.00     0.089 C
ATOM     43  C   UNL     1      34.083  20.213  -6.462  1.00  0.00     0.022 C
ATOM     44  C   UNL     1      33.552  21.597  -6.058  1.00  0.00     0.018 C
ATOM     45  G   UNL     1      34.239  22.271  -4.846  1.00  0.00     0.000 C
ENDBRANCH  39  40
ENDBRANCH  38  39
ENDBRANCH  37  38
ENDBRANCH   1  37
TORSDOF 0
ENDMDL
MODEL 5
REMARK VINA RESULT:      -7.9      1.089      1.437
REMARK SMILES Cc1cnc2nc1-c1cccc(c1)COCC=C1CNC[C@H]3CCN(CCOc4ccc(cc4COC1)N2)C3
REMARK SMILES IDX 29 1 30 2 31 3 32 4 33 5 34 6 38 7 5 9 2 10 3 11 7 12 4 13
REMARK SMILES IDX 6 14 1 15 8 16 9 17 13 18 10 19 12 20 11 21 14 22 15 23
REMARK SMILES IDX 16 24 35 26 36 27 37 28 18 29 17 30 19 32 20 33 21 35 28 37
REMARK SMILES IDX 27 38 26 39 25 40 24 41 39 42 23 43 22 44
REMARK H PARENT 38 8 20 34
REMARK Flexibility Score:  100.800
ROOT
ATOM      1  C   UNL     1      30.522  16.739  -4.181  1.00  0.00     0.125 A
ATOM      2  C   UNL     1      30.564  15.944  -3.035  1.00  0.00     0.049 A
ATOM      3  C   UNL     1      31.755  15.325  -2.639  1.00  0.00     0.030 A
ATOM      4  C   UNL     1      32.934  15.472  -3.378  1.00  0.00     0.042 A
ATOM      5  C   UNL     1      32.888  16.276  -4.518  1.00  0.00     0.036 A
ATOM      6  C   UNL     1      31.712  16.961  -4.896  1.00  0.00     0.022 A
ENDROOT
BRANCH   4   7
ATOM      7  N   UNL     1      34.077  14.786  -2.962  1.00  0.00    -0.324 N
ATOM      8  H   UNL     1      34.924  15.320  -2.851  1.00  0.00     0.170 HD
BRANCH   7   9
ATOM      9  C   UNL     1      34.327  13.450  -2.675  1.00  0.00     0.227 A
ATOM     10  C   UNL     1      34.859  10.877  -1.928  1.00  0.00    -0.006 A
ATOM     11  C   UNL     1      35.613  11.953  -1.511  1.00  0.00     0.120 A
ATOM     12  C   UNL     1      33.778  11.205  -2.731  1.00  0.00     0.079 A
ATOM     13  N   UNL     1      35.361  13.230  -1.852  1.00  0.00    -0.221 NA
ATOM     14  N   UNL     1      33.536  12.474  -3.136  1.00  0.00    -0.212 NA
ATOM     15  C   UNL     1      35.197   9.490  -1.488  1.00  0.00     0.048 C
BRANCH  12  16
ATOM     16  C   UNL     1      32.775  10.230  -3.190  1.00  0.00     0.001 A
ATOM     17  C   UNL     1      32.799   8.896  -2.750  1.00  0.00     0.010 A
ATOM     18  C   UNL     1      31.731  10.624  -4.044  1.00  0.00     0.016 A
ATOM     19  C   UNL     1      31.826   7.983  -3.158  1.00  0.00     0.001 A
ATOM     20  C   UNL     1      30.745   9.716  -4.461  1.00  0.00    -0.022 A
ATOM     21  C   UNL     1      30.801   8.392  -4.008  1.00  0.00     0.006 A
BRANCH  20  22
ATOM     22  C   UNL     1      29.606  10.167  -5.339  1.00  0.00     0.196 C
BRANCH  22  23
ATOM     23  O   UNL     1      28.421  10.398  -4.578  1.00  0.00    -0.373 OA
BRANCH  23  24
ATOM     24  C   UNL     1      27.270  10.550  -5.415  1.00  0.00     0.188 C
ATOM     25  G   UNL     1      27.481   9.721  -6.644  1.00  0.00     0.000 C
ENDBRANCH  23  24
ENDBRANCH  22  23
ENDBRANCH  20  22
ENDBRANCH  12  16
ENDBRANCH   7   9
ENDBRANCH   4   7
BRANCH   6  26
ATOM     26  C   UNL     1      31.799  17.975  -6.014  1.00  0.00     0.200 C
BRANCH  26  27
ATOM     27  O   UNL     1      32.935  18.835  -5.922  1.00  0.00    -0.372 OA
BRANCH  27  28
ATOM     28  C   UNL     1      32.636  20.153  -6.375  1.00  0.00     0.193 C
BRANCH  28  29
ATOM     29  C   UNL     1      32.716  21.198  -5.273  1.00  0.00    -0.033 C
ATOM     30  C   UNL     1      33.717  22.095  -5.113  1.00  0.00     0.004 C
ATOM     31  G   UNL     1      34.906  22.271  -6.005  1.00  0.00     0.000 C
BRANCH  29  32
ATOM     32  C   UNL     1      31.587  21.150  -4.248  1.00  0.00     0.114 C
BRANCH  32  33
ATOM     33  N   UNL     1      30.339  21.781  -4.693  1.00  0.00    -0.313 NA
ATOM     34  H   UNL     1      30.370  22.753  -4.393  1.00  0.00     0.123 HD
BRANCH  33  35
ATOM     35  C   UNL     1      30.157  21.677  -6.140  1.00  0.00     0.086 C
ATOM     36  G   UNL     1      28.701  21.536  -6.646  1.00  0.00     0.000 C
ENDBRANCH  33  35
ENDBRANCH  32  33
ENDBRANCH  29  32
ENDBRANCH  28  29
ENDBRANCH  27  28
ENDBRANCH  26  27
ENDBRANCH   6  26
BRANCH   1  37
ATOM     37  O   UNL     1      29.392  17.340  -4.665  1.00  0.00    -0.492 OA
BRANCH  37  38
ATOM     38  C   UNL     1      28.619  16.690  -5.688  1.00  0.00     0.245 C
BRANCH  38  39
ATOM     39  C   UNL     1      28.186  17.610  -6.851  1.00  0.00     0.126 C
BRANCH  39  40
ATOM     40  N   UNL     1      27.334  16.923  -7.814  1.00  0.00    -0.300 NA
ATOM     41  C   UNL     1      26.999  15.552  -7.441  1.00  0.00     0.085 C
ATOM     42  C   UNL     1      26.066  17.577  -8.141  1.00  0.00     0.089 C
ATOM     43  C   UNL     1      25.769  15.228  -8.283  1.00  0.00     0.022 C
ATOM     44  C   UNL     1      25.444  16.513  -9.059  1.00  0.00     0.018 C
ATOM     45  G   UNL     1      26.079  16.647 -10.464  1.00  0.00     0.000 C
ENDBRANCH  39  40
ENDBRANCH  38  39
ENDBRANCH  37  38
ENDBRANCH   1  37
TORSDOF 0
ENDMDL
MODEL 6
REMARK VINA RESULT:      -7.9      2.590      9.414
REMARK SMILES Cc1cnc2nc1-c1cccc(c1)COCC=C1CNC[C@H]3CCN(CCOc4ccc(cc4COC1)N2)C3
REMARK SMILES IDX 29 1 30 2 31 3 32 4 33 5 34 6 38 7 5 9 2 10 3 11 7 12 4 13
REMARK SMILES IDX 6 14 1 15 8 16 9 17 13 18 10 19 12 20 11 21 14 22 15 23
REMARK SMILES IDX 16 24 35 26 36 27 37 28 18 29 17 30 19 32 20 33 21 35 28 37
REMARK SMILES IDX 27 38 26 39 25 40 24 41 39 42 23 43 22 44
REMARK H PARENT 38 8 20 34
REMARK Flexibility Score:  100.800
ROOT
ATOM      1  C   UNL     1      29.679   8.794  -5.367  1.00  0.00     0.125 A
ATOM      2  C   UNL     1      28.649   8.950  -6.296  1.00  0.00     0.049 A
ATOM      3  C   UNL     1      27.845  10.096  -6.286  1.00  0.00     0.030 A
ATOM      4  C   UNL     1      28.039  11.114  -5.347  1.00  0.00     0.042 A
ATOM      5  C   UNL     1      29.078  10.958  -4.426  1.00  0.00     0.036 A
ATOM      6  C   UNL     1      29.939   9.839  -4.462  1.00  0.00     0.022 A
ENDROOT
BRANCH   4   7
ATOM      7  N   UNL     1      27.172  12.208  -5.354  1.00  0.00    -0.324 N
ATOM      8  H   UNL     1      26.183  12.016  -5.381  1.00  0.00     0.170 HD
BRANCH   7   9
ATOM      9  C   UNL     1      27.380  13.582  -5.358  1.00  0.00     0.227 A
ATOM     10  C   UNL     1      27.668  16.294  -5.212  1.00  0.00    -0.006 A
ATOM     11  C   UNL     1      26.458  15.656  -5.042  1.00  0.00     0.120 A
ATOM     12  C   UNL     1      28.744  15.447  -5.424  1.00  0.00     0.079 A
ATOM     13  N   UNL     1      26.294  14.322  -5.093  1.00  0.00    -0.221 NA
ATOM     14  N   UNL     1      28.598  14.106  -5.539  1.00  0.00    -0.212 NA
ATOM     15  C   UNL     1      27.767  17.782  -5.122  1.00  0.00     0.048 C
BRANCH  12  16
ATOM     16  C   UNL     1      30.141  15.905  -5.513  1.00  0.00     0.001 A
ATOM     17  C   UNL     1      31.175  15.026  -5.880  1.00  0.00     0.010 A
ATOM     18  C   UNL     1      30.470  17.251  -5.282  1.00  0.00     0.016 A
ATOM     19  C   UNL     1      32.492  15.472  -5.998  1.00  0.00     0.001 A
ATOM     20  C   UNL     1      31.790  17.712  -5.399  1.00  0.00    -0.022 A
ATOM     21  C   UNL     1      32.798  16.810  -5.762  1.00  0.00     0.006 A
BRANCH  20  22
ATOM     22  C   UNL     1      32.117  19.169  -5.195  1.00  0.00     0.196 C
BRANCH  22  23
ATOM     23  O   UNL     1      31.408  19.997  -6.116  1.00  0.00    -0.373 OA
BRANCH  23  24
ATOM     24  C   UNL     1      30.623  20.989  -5.447  1.00  0.00     0.188 C
ATOM     25  G   UNL     1      29.542  21.431  -6.384  1.00  0.00     0.000 C
ENDBRANCH  23  24
ENDBRANCH  22  23
ENDBRANCH  20  22
ENDBRANCH  12  16
ENDBRANCH   7   9
ENDBRANCH   4   7
BRANCH   6  26
ATOM     26  C   UNL     1      31.163   9.846  -3.575  1.00  0.00     0.200 C
BRANCH  26  27
ATOM     27  O   UNL     1      32.304  10.460  -4.175  1.00  0.00    -0.372 OA
BRANCH  27  28
ATOM     28  C   UNL     1      32.276  11.878  -4.031  1.00  0.00     0.193 C
BRANCH  28  29
ATOM     29  C   UNL     1      33.309  12.400  -3.044  1.00  0.00    -0.033 C
ATOM     30  C   UNL     1      33.240  13.583  -2.389  1.00  0.00     0.004 C
ATOM     31  G   UNL     1      32.126  14.580  -2.466  1.00  0.00     0.000 C
BRANCH  29  32
ATOM     32  C   UNL     1      34.538  11.515  -2.859  1.00  0.00     0.114 C
BRANCH  32  33
ATOM     33  N   UNL     1      35.524  12.042  -1.907  1.00  0.00    -0.313 NA
ATOM     34  H   UNL     1      35.084  12.820  -1.419  1.00  0.00     0.123 HD
BRANCH  33  35
ATOM     35  C   UNL     1      35.984  11.018  -0.970  1.00  0.00     0.086 C
ATOM     36  G   UNL     1      35.116   9.743  -0.858  1.00  0.00     0.000 C
ENDBRANCH  33  35
ENDBRANCH  32  33
ENDBRANCH  29  32
ENDBRANCH  28  29
ENDBRANCH  27  28
ENDBRANCH  26  27
ENDBRANCH   6  26
BRANCH   1  37
ATOM     37  O   UNL     1      30.478   7.688  -5.276  1.00  0.00    -0.492 OA
BRANCH  37  38
ATOM     38  C   UNL     1      29.986   6.504  -4.626  1.00  0.00     0.245 C
BRANCH  38  39
ATOM     39  C   UNL     1      29.275   5.502  -5.565  1.00  0.00     0.126 C
BRANCH  39  40
ATOM     40  N   UNL     1      27.830   5.695  -5.590  1.00  0.00    -0.300 NA
ATOM     41  C   UNL     1      27.198   5.300  -6.845  1.00  0.00     0.085 C
ATOM     42  C   UNL     1      27.069   5.038  -4.526  1.00  0.00     0.089 C
ATOM     43  C   UNL     1      25.727   5.123  -6.480  1.00  0.00     0.022 C
ATOM     44  C   UNL     1      25.638   5.381  -4.968  1.00  0.00     0.018 C
ATOM     45  G   UNL     1      25.327   6.833  -4.535  1.00  0.00     0.000 C
ENDBRANCH  39  40
ENDBRANCH  38  39
ENDBRANCH  37  38
ENDBRANCH   1  37
TORSDOF 0
ENDMDL
MODEL 7
REMARK VINA RESULT:      -7.8      2.662      6.435
REMARK SMILES Cc1cnc2nc1-c1cccc(c1)COCC=C1CNC[C@H]3CCN(CCOc4ccc(cc4COC1)N2)C3
REMARK SMILES IDX 29 1 30 2 31 3 32 4 33 5 34 6 38 7 5 9 2 10 3 11 7 12 4 13
REMARK SMILES IDX 6 14 1 15 8 16 9 17 13 18 10 19 12 20 11 21 14 22 15 23
REMARK SMILES IDX 16 24 35 26 36 27 37 28 18 29 17 30 19 32 20 33 21 35 28 37
REMARK SMILES IDX 27 38 26 39 25 40 24 41 39 42 23 43 22 44
REMARK H PARENT 38 8 20 34
REMARK Flexibility Score:  100.800
ROOT
ATOM      1  C   UNL     1      28.545  15.902  -5.511  1.00  0.00     0.125 A
ATOM      2  C   UNL     1      28.992  15.067  -4.487  1.00  0.00     0.049 A
ATOM      3  C   UNL     1      28.699  13.698  -4.502  1.00  0.00     0.030 A
ATOM      4  C   UNL     1      27.946  13.125  -5.533  1.00  0.00     0.042 A
ATOM      5  C   UNL     1      27.509  13.965  -6.560  1.00  0.00     0.036 A
ATOM      6  C   UNL     1      27.850  15.335  -6.594  1.00  0.00     0.022 A
ENDROOT
BRANCH   4   7
ATOM      7  N   UNL     1      27.641  11.765  -5.465  1.00  0.00    -0.324 N
ATOM      8  H   UNL     1      26.676  11.499  -5.575  1.00  0.00     0.170 HD
BRANCH   7   9
ATOM      9  C   UNL     1      28.414  10.632  -5.239  1.00  0.00     0.227 A
ATOM     10  C   UNL     1      29.909   8.360  -4.986  1.00  0.00    -0.006 A
ATOM     11  C   UNL     1      28.749   8.419  -5.730  1.00  0.00     0.120 A
ATOM     12  C   UNL     1      30.284   9.560  -4.404  1.00  0.00     0.079 A
ATOM     13  N   UNL     1      28.005   9.529  -5.883  1.00  0.00    -0.221 NA
ATOM     14  N   UNL     1      29.524  10.677  -4.493  1.00  0.00    -0.212 NA
ATOM     15  C   UNL     1      30.686   7.089  -4.882  1.00  0.00     0.048 C
BRANCH  12  16
ATOM     16  C   UNL     1      31.545   9.754  -3.668  1.00  0.00     0.001 A
ATOM     17  C   UNL     1      32.221   8.670  -3.083  1.00  0.00     0.010 A
ATOM     18  C   UNL     1      32.134  11.026  -3.578  1.00  0.00     0.016 A
ATOM     19  C   UNL     1      33.435   8.851  -2.418  1.00  0.00     0.001 A
ATOM     20  C   UNL     1      33.355  11.221  -2.913  1.00  0.00    -0.022 A
ATOM     21  C   UNL     1      34.001  10.120  -2.336  1.00  0.00     0.006 A
BRANCH  20  22
ATOM     22  C   UNL     1      33.996  12.584  -2.866  1.00  0.00     0.196 C
BRANCH  22  23
ATOM     23  O   UNL     1      33.103  13.562  -2.332  1.00  0.00    -0.373 OA
BRANCH  23  24
ATOM     24  C   UNL     1      33.220  14.817  -3.010  1.00  0.00     0.188 C
ATOM     25  G   UNL     1      32.552  14.685  -4.343  1.00  0.00     0.000 C
ENDBRANCH  23  24
ENDBRANCH  22  23
ENDBRANCH  20  22
ENDBRANCH  12  16
ENDBRANCH   7   9
ENDBRANCH   4   7
BRANCH   6  26
ATOM     26  C   UNL     1      27.523  16.125  -7.841  1.00  0.00     0.200 C
BRANCH  26  27
ATOM     27  O   UNL     1      28.215  15.674  -9.005  1.00  0.00    -0.372 OA
BRANCH  27  28
ATOM     28  C   UNL     1      27.452  14.716  -9.734  1.00  0.00     0.193 C
BRANCH  28  29
ATOM     29  C   UNL     1      26.894  15.262 -11.039  1.00  0.00    -0.033 C
ATOM     30  C   UNL     1      27.586  15.391 -12.196  1.00  0.00     0.004 C
ATOM     31  G   UNL     1      29.006  14.982 -12.434  1.00  0.00     0.000 C
BRANCH  29  32
ATOM     32  C   UNL     1      25.451  15.755 -10.975  1.00  0.00     0.114 C
BRANCH  32  33
ATOM     33  N   UNL     1      25.258  17.125 -11.464  1.00  0.00    -0.313 NA
ATOM     34  H   UNL     1      24.312  17.181 -11.835  1.00  0.00     0.123 HD
BRANCH  33  35
ATOM     35  C   UNL     1      25.476  18.119 -10.414  1.00  0.00     0.086 C
ATOM     36  G   UNL     1      26.674  19.079 -10.609  1.00  0.00     0.000 C
ENDBRANCH  33  35
ENDBRANCH  32  33
ENDBRANCH  29  32
ENDBRANCH  28  29
ENDBRANCH  27  28
ENDBRANCH  26  27
ENDBRANCH   6  26
BRANCH   1  37
ATOM     37  O   UNL     1      28.744  17.255  -5.549  1.00  0.00    -0.492 OA
BRANCH  37  38
ATOM     38  C   UNL     1      29.813  17.841  -4.788  1.00  0.00     0.245 C
BRANCH  38  39
ATOM     39  C   UNL     1      30.342  19.182  -5.346  1.00  0.00     0.126 C
BRANCH  39  40
ATOM     40  N   UNL     1      31.656  19.047  -5.962  1.00  0.00    -0.300 NA
ATOM     41  C   UNL     1      32.273  20.316  -6.334  1.00  0.00     0.085 C
ATOM     42  C   UNL     1      32.662  18.315  -5.192  1.00  0.00     0.089 C
ATOM     43  C   UNL     1      33.754  19.980  -6.481  1.00  0.00     0.022 C
ATOM     44  C   UNL     1      33.885  18.496  -6.106  1.00  0.00     0.018 C
ATOM     45  G   UNL     1      33.782  17.481  -7.268  1.00  0.00     0.000 C
ENDBRANCH  39  40
ENDBRANCH  38  39
ENDBRANCH  37  38
ENDBRANCH   1  37
TORSDOF 0
ENDMDL
MODEL 8
REMARK VINA RESULT:      -7.8      2.750      6.961
REMARK SMILES Cc1cnc2nc1-c1cccc(c1)COCC=C1CNC[C@H]3CCN(CCOc4ccc(cc4COC1)N2)C3
REMARK SMILES IDX 29 1 30 2 31 3 32 4 33 5 34 6 38 7 5 9 2 10 3 11 7 12 4 13
REMARK SMILES IDX 6 14 1 15 8 16 9 17 13 18 10 19 12 20 11 21 14 22 15 23
REMARK SMILES IDX 16 24 35 26 36 27 37 28 18 29 17 30 19 32 20 33 21 35 28 37
REMARK SMILES IDX 27 38 26 39 25 40 24 41 39 42 23 43 22 44
REMARK H PARENT 38 8 20 34
REMARK Flexibility Score:  100.800
ROOT
ATOM      1  C   UNL     1      29.564  15.828  -5.706  1.00  0.00     0.125 A
ATOM      2  C   UNL     1      28.290  15.503  -5.239  1.00  0.00     0.049 A
ATOM      3  C   UNL     1      28.021  14.229  -4.724  1.00  0.00     0.030 A
ATOM      4  C   UNL     1      29.010  13.242  -4.668  1.00  0.00     0.042 A
ATOM      5  C   UNL     1      30.286  13.576  -5.129  1.00  0.00     0.036 A
ATOM      6  C   UNL     1      30.591  14.875  -5.591  1.00  0.00     0.022 A
ENDROOT
BRANCH   4   7
ATOM      7  N   UNL     1      28.668  11.974  -4.194  1.00  0.00    -0.324 N
ATOM      8  H   UNL     1      28.292  11.914  -3.261  1.00  0.00     0.170 HD
BRANCH   7   9
ATOM      9  C   UNL     1      28.759  10.701  -4.743  1.00  0.00     0.227 A
ATOM     10  C   UNL     1      29.064   8.153  -5.679  1.00  0.00    -0.006 A
ATOM     11  C   UNL     1      30.113   8.910  -5.202  1.00  0.00     0.120 A
ATOM     12  C   UNL     1      27.826   8.773  -5.611  1.00  0.00     0.079 A
ATOM     13  N   UNL     1      29.985  10.160  -4.721  1.00  0.00    -0.221 NA
ATOM     14  N   UNL     1      27.678  10.050  -5.187  1.00  0.00    -0.212 NA
ATOM     15  C   UNL     1      29.290   6.765  -6.180  1.00  0.00     0.048 C
BRANCH  12  16
ATOM     16  C   UNL     1      26.558   8.107  -5.955  1.00  0.00     0.001 A
ATOM     17  C   UNL     1      25.817   7.406  -4.989  1.00  0.00     0.010 A
ATOM     18  C   UNL     1      26.028   8.201  -7.253  1.00  0.00     0.016 A
ATOM     19  C   UNL     1      24.598   6.807  -5.309  1.00  0.00     0.001 A
ATOM     20  C   UNL     1      24.802   7.605  -7.587  1.00  0.00    -0.022 A
ATOM     21  C   UNL     1      24.091   6.909  -6.602  1.00  0.00     0.006 A
BRANCH  20  22
ATOM     22  C   UNL     1      24.226   7.756  -8.972  1.00  0.00     0.196 C
BRANCH  22  23
ATOM     23  O   UNL     1      25.250   7.758  -9.965  1.00  0.00    -0.373 OA
BRANCH  23  24
ATOM     24  C   UNL     1      25.186   8.923 -10.796  1.00  0.00     0.188 C
ATOM     25  G   UNL     1      26.561   9.507 -10.880  1.00  0.00     0.000 C
ENDBRANCH  23  24
ENDBRANCH  22  23
ENDBRANCH  20  22
ENDBRANCH  12  16
ENDBRANCH   7   9
ENDBRANCH   4   7
BRANCH   6  26
ATOM     26  C   UNL     1      32.038  15.217  -5.869  1.00  0.00     0.200 C
BRANCH  26  27
ATOM     27  O   UNL     1      32.963  14.525  -5.030  1.00  0.00    -0.372 OA
BRANCH  27  28
ATOM     28  C   UNL     1      33.183  15.217  -3.804  1.00  0.00     0.193 C
BRANCH  28  29
ATOM     29  C   UNL     1      32.654  14.470  -2.590  1.00  0.00    -0.033 C
ATOM     30  C   UNL     1      31.582  14.836  -1.848  1.00  0.00     0.004 C
ATOM     31  G   UNL     1      30.684  16.008  -2.100  1.00  0.00     0.000 C
BRANCH  29  32
ATOM     32  C   UNL     1      33.469  13.251  -2.170  1.00  0.00     0.114 C
BRANCH  32  33
ATOM     33  N   UNL     1      34.903  13.350  -2.471  1.00  0.00    -0.313 NA
ATOM     34  H   UNL     1      35.292  14.056  -1.851  1.00  0.00     0.123 HD
BRANCH  33  35
ATOM     35  C   UNL     1      35.587  12.067  -2.313  1.00  0.00     0.086 C
ATOM     36  G   UNL     1      36.009  11.682  -0.875  1.00  0.00     0.000 C
ENDBRANCH  33  35
ENDBRANCH  32  33
ENDBRANCH  29  32
ENDBRANCH  28  29
ENDBRANCH  27  28
ENDBRANCH  26  27
ENDBRANCH   6  26
BRANCH   1  37
ATOM     37  O   UNL     1      29.899  17.029  -6.268  1.00  0.00    -0.492 OA
BRANCH  37  38
ATOM     38  C   UNL     1      29.831  18.230  -5.480  1.00  0.00     0.245 C
BRANCH  38  39
ATOM     39  C   UNL     1      29.998  19.539  -6.285  1.00  0.00     0.126 C
BRANCH  39  40
ATOM     40  N   UNL     1      31.341  20.094  -6.168  1.00  0.00    -0.300 NA
ATOM     41  C   UNL     1      31.378  21.460  -5.654  1.00  0.00     0.085 C
ATOM     42  C   UNL     1      32.292  19.329  -5.361  1.00  0.00     0.089 C
ATOM     43  C   UNL     1      32.814  21.636  -5.170  1.00  0.00     0.022 C
ATOM     44  C   UNL     1      33.499  20.280  -5.396  1.00  0.00     0.018 C
ATOM     45  G   UNL     1      34.228  20.094  -6.748  1.00  0.00     0.000 C
ENDBRANCH  39  40
ENDBRANCH  38  39
ENDBRANCH  37  38
ENDBRANCH   1  37
TORSDOF 0
ENDMDL
MODEL 9
REMARK VINA RESULT:      -7.7      2.393      6.155
REMARK SMILES Cc1cnc2nc1-c1cccc(c1)COCC=C1CNC[C@H]3CCN(CCOc4ccc(cc4COC1)N2)C3
REMARK SMILES IDX 29 1 30 2 31 3 32 4 33 5 34 6 38 7 5 9 2 10 3 11 7 12 4 13
REMARK SMILES IDX 6 14 1 15 8 16 9 17 13 18 10 19 12 20 11 21 14 22 15 23
REMARK SMILES IDX 16 24 35 26 36 27 37 28 18 29 17 30 19 32 20 33 21 35 28 37
REMARK SMILES IDX 27 38 26 39 25 40 24 41 39 42 23 43 22 44
REMARK H PARENT 38 8 20 34
REMARK Flexibility Score:  100.800
ROOT
ATOM      1  C   UNL     1      31.632  16.391  -5.495  1.00  0.00     0.125 A
ATOM      2  C   UNL     1      32.237  15.163  -5.766  1.00  0.00     0.049 A
ATOM      3  C   UNL     1      31.501  13.974  -5.700  1.00  0.00     0.030 A
ATOM      4  C   UNL     1      30.145  13.974  -5.354  1.00  0.00     0.042 A
ATOM      5  C   UNL     1      29.543  15.207  -5.093  1.00  0.00     0.036 A
ATOM      6  C   UNL     1      30.254  16.421  -5.218  1.00  0.00     0.022 A
ENDROOT
BRANCH   4   7
ATOM      7  N   UNL     1      29.478  12.752  -5.253  1.00  0.00    -0.324 N
ATOM      8  H   UNL     1      28.490  12.744  -5.448  1.00  0.00     0.170 HD
BRANCH   7   9
ATOM      9  C   UNL     1      29.893  11.474  -4.898  1.00  0.00     0.227 A
ATOM     10  C   UNL     1      30.685   8.910  -4.387  1.00  0.00    -0.006 A
ATOM     11  C   UNL     1      29.640   9.221  -5.231  1.00  0.00     0.120 A
ATOM     12  C   UNL     1      31.335  10.007  -3.844  1.00  0.00     0.079 A
ATOM     13  N   UNL     1      29.242  10.475  -5.511  1.00  0.00    -0.221 NA
ATOM     14  N   UNL     1      30.919  11.276  -4.062  1.00  0.00    -0.212 NA
ATOM     15  C   UNL     1      31.075   7.489  -4.145  1.00  0.00     0.048 C
BRANCH  12  16
ATOM     16  C   UNL     1      32.547   9.910  -3.013  1.00  0.00     0.001 A
ATOM     17  C   UNL     1      32.858   8.734  -2.311  1.00  0.00     0.010 A
ATOM     18  C   UNL     1      33.456  10.980  -2.944  1.00  0.00     0.016 A
ATOM     19  C   UNL     1      34.027   8.633  -1.554  1.00  0.00     0.001 A
ATOM     20  C   UNL     1      34.635  10.890  -2.187  1.00  0.00    -0.022 A
ATOM     21  C   UNL     1      34.913   9.705  -1.495  1.00  0.00     0.006 A
BRANCH  20  22
ATOM     22  C   UNL     1      35.621  12.030  -2.162  1.00  0.00     0.196 C
BRANCH  22  23
ATOM     23  O   UNL     1      35.184  13.115  -2.979  1.00  0.00    -0.373 OA
BRANCH  23  24
ATOM     24  C   UNL     1      34.783  14.244  -2.196  1.00  0.00     0.188 C
ATOM     25  G   UNL     1      34.527  15.386  -3.129  1.00  0.00     0.000 C
ENDBRANCH  23  24
ENDBRANCH  22  23
ENDBRANCH  20  22
ENDBRANCH  12  16
ENDBRANCH   7   9
ENDBRANCH   4   7
BRANCH   6  26
ATOM     26  C   UNL     1      29.481  17.718  -5.128  1.00  0.00     0.200 C
BRANCH  26  27
ATOM     27  O   UNL     1      28.778  18.051  -6.325  1.00  0.00    -0.372 OA
BRANCH  27  28
ATOM     28  C   UNL     1      27.371  17.881  -6.176  1.00  0.00     0.193 C
BRANCH  28  29
ATOM     29  C   UNL     1      26.816  16.728  -6.998  1.00  0.00    -0.033 C
ATOM     30  C   UNL     1      26.336  15.566  -6.496  1.00  0.00     0.004 C
ATOM     31  G   UNL     1      26.211  15.206  -5.049  1.00  0.00     0.000 C
BRANCH  29  32
ATOM     32  C   UNL     1      26.887  16.914  -8.510  1.00  0.00     0.114 C
BRANCH  32  33
ATOM     33  N   UNL     1      27.091  18.303  -8.939  1.00  0.00    -0.313 NA
ATOM     34  H   UNL     1      27.813  18.294  -9.657  1.00  0.00     0.123 HD
BRANCH  33  35
ATOM     35  C   UNL     1      25.857  18.912  -9.436  1.00  0.00     0.086 C
ATOM     36  G   UNL     1      25.568  18.752 -10.948  1.00  0.00     0.000 C
ENDBRANCH  33  35
ENDBRANCH  32  33
ENDBRANCH  29  32
ENDBRANCH  28  29
ENDBRANCH  27  28
ENDBRANCH  26  27
ENDBRANCH   6  26
BRANCH   1  37
ATOM     37  O   UNL     1      32.287  17.592  -5.489  1.00  0.00    -0.492 OA
BRANCH  37  38
ATOM     38  C   UNL     1      33.278  17.870  -6.492  1.00  0.00     0.245 C
BRANCH  38  39
ATOM     39  C   UNL     1      33.344  19.348  -6.940  1.00  0.00     0.126 C
BRANCH  39  40
ATOM     40  N   UNL     1      32.977  20.268  -5.871  1.00  0.00    -0.300 NA
ATOM     41  C   UNL     1      34.073  21.117  -5.413  1.00  0.00     0.085 C
ATOM     42  C   UNL     1      31.854  21.166  -6.144  1.00  0.00     0.089 C
ATOM     43  C   UNL     1      33.376  22.270  -4.698  1.00  0.00     0.022 C
ATOM     44  C   UNL     1      31.870  22.014  -4.863  1.00  0.00     0.018 C
ATOM     45  G   UNL     1      31.181  21.210  -3.735  1.00  0.00     0.000 C
ENDBRANCH  39  40
ENDBRANCH  38  39
ENDBRANCH  37  38
ENDBRANCH   1  37
TORSDOF 0
ENDMDL
