MODEL 1
REMARK VINA RESULT:      -7.3      0.000      0.000
REMARK SMILES C1=C2/COCc3cc(ccc3OCCN3CCC[C@@H]3CSC2)Nc2nccc(n2)-c2ccc(s2)COC/1
REMARK SMILES IDX 6 1 7 2 8 3 9 4 10 5 11 6 5 7 4 8 3 9 2 10 1 11 22 13 21 14
REMARK SMILES IDX 20 15 12 17 13 18 14 19 15 20 16 21 19 22 17 23 18 24 23 26
REMARK SMILES IDX 24 28 25 29 29 30 26 31 28 32 27 33 30 34 31 35 34 36 32 37
REMARK SMILES IDX 33 38 35 39 36 40 37 41
REMARK H PARENT 23 27
REMARK Flexibility Score:   91.800
ROOT
ATOM      1  C   UNL     1      29.794  14.789  -4.201  1.00  0.00     0.022 A
ATOM      2  C   UNL     1      30.774  13.792  -4.026  1.00  0.00     0.036 A
ATOM      3  C   UNL     1      32.081  14.097  -3.614  1.00  0.00     0.042 A
ATOM      4  C   UNL     1      32.388  15.445  -3.366  1.00  0.00     0.030 A
ATOM      5  C   UNL     1      31.437  16.451  -3.549  1.00  0.00     0.049 A
ATOM      6  C   UNL     1      30.160  16.123  -3.995  1.00  0.00     0.125 A
ENDROOT
BRANCH   1   7
ATOM      7  C   UNL     1      28.415  14.425  -4.692  1.00  0.00     0.200 C
BRANCH   7   8
ATOM      8  O   UNL     1      28.463  13.514  -5.794  1.00  0.00    -0.372 OA
BRANCH   8   9
ATOM      9  C   UNL     1      28.348  14.195  -7.045  1.00  0.00     0.192 C
BRANCH   9  10
ATOM     10  C   UNL     1      26.956  14.086  -7.642  1.00  0.00    -0.036 C
ATOM     11  C   UNL     1      26.487  12.877  -8.027  1.00  0.00     0.003 C
ATOM     12  G   UNL     1      25.157  12.542  -8.635  1.00  0.00     0.000 C
BRANCH  10  13
ATOM     13  C   UNL     1      26.155  15.364  -7.676  1.00  0.00     0.102 C
BRANCH  13  14
ATOM     14  S   UNL     1      27.247  16.800  -7.920  1.00  0.00    -0.156 SA
BRANCH  14  15
ATOM     15  C   UNL     1      26.491  17.960  -6.725  1.00  0.00     0.089 C
ATOM     16  G   UNL     1      27.027  19.406  -6.855  1.00  0.00     0.000 C
ENDBRANCH  14  15
ENDBRANCH  13  14
ENDBRANCH  10  13
ENDBRANCH   9  10
ENDBRANCH   8   9
ENDBRANCH   7   8
ENDBRANCH   1   7
BRANCH   6  17
ATOM     17  O   UNL     1      29.243  17.123  -4.178  1.00  0.00    -0.492 OA
BRANCH  17  18
ATOM     18  C   UNL     1      29.820  18.269  -4.826  1.00  0.00     0.245 C
BRANCH  18  19
ATOM     19  C   UNL     1      30.508  17.868  -6.151  1.00  0.00     0.126 C
BRANCH  19  20
ATOM     20  N   UNL     1      31.623  18.740  -6.562  1.00  0.00    -0.296 NA
ATOM     21  C   UNL     1      31.483  20.106  -6.054  1.00  0.00     0.085 C
ATOM     22  C   UNL     1      32.955  18.232  -6.155  1.00  0.00     0.066 C
ATOM     23  C   UNL     1      32.883  20.657  -6.193  1.00  0.00     0.017 C
ATOM     24  C   UNL     1      33.738  19.492  -5.738  1.00  0.00     0.021 C
ATOM     25  G   UNL     1      33.677  17.521  -7.324  1.00  0.00     0.000 C
ENDBRANCH  19  20
ENDBRANCH  18  19
ENDBRANCH  17  18
ENDBRANCH   6  17
BRANCH   3  26
ATOM     26  N   UNL     1      33.108  13.150  -3.509  1.00  0.00    -0.324 N
ATOM     27  H   UNL     1      34.049  13.463  -3.687  1.00  0.00     0.170 HD
BRANCH  26  28
ATOM     28  C   UNL     1      33.111  11.786  -3.231  1.00  0.00     0.227 A
ATOM     29  N   UNL     1      34.114  11.346  -2.456  1.00  0.00    -0.221 NA
ATOM     30  N   UNL     1      32.192  10.971  -3.754  1.00  0.00    -0.212 NA
ATOM     31  C   UNL     1      34.170  10.021  -2.212  1.00  0.00     0.117 A
ATOM     32  C   UNL     1      32.272   9.655  -3.483  1.00  0.00     0.086 A
ATOM     33  C   UNL     1      33.269   9.115  -2.711  1.00  0.00     0.050 A
BRANCH  32  34
ATOM     34  C   UNL     1      31.219   8.842  -4.095  1.00  0.00     0.053 A
ATOM     35  C   UNL     1      31.070   7.469  -4.151  1.00  0.00     0.022 A
ATOM     36  S   UNL     1      29.920   9.627  -4.893  1.00  0.00    -0.136 S
ATOM     37  C   UNL     1      29.945   7.072  -4.938  1.00  0.00     0.018 A
ATOM     38  C   UNL     1      29.249   8.153  -5.440  1.00  0.00     0.031 A
BRANCH  38  39
ATOM     39  C   UNL     1      28.062   8.178  -6.350  1.00  0.00     0.207 C
BRANCH  39  40
ATOM     40  O   UNL     1      28.107   6.975  -7.116  1.00  0.00    -0.372 OA
BRANCH  40  41
ATOM     41  C   UNL     1      28.619   7.153  -8.436  1.00  0.00     0.188 C
ATOM     42  G   UNL     1      28.301   8.534  -8.928  1.00  0.00     0.000 C
ENDBRANCH  40  41
ENDBRANCH  39  40
ENDBRANCH  38  39
ENDBRANCH  32  34
ENDBRANCH  26  28
ENDBRANCH   3  26
TORSDOF 0
ENDMDL
MODEL 2
REMARK VINA RESULT:      -7.2      1.778      2.818
REMARK SMILES C1=C2/COCc3cc(ccc3OCCN3CCC[C@@H]3CSC2)Nc2nccc(n2)-c2ccc(s2)COC/1
REMARK SMILES IDX 6 1 7 2 8 3 9 4 10 5 11 6 5 7 4 8 3 9 2 10 1 11 22 13 21 14
REMARK SMILES IDX 20 15 12 17 13 18 14 19 15 20 16 21 19 22 17 23 18 24 23 26
REMARK SMILES IDX 24 28 25 29 29 30 26 31 28 32 27 33 30 34 31 35 34 36 32 37
REMARK SMILES IDX 33 38 35 39 36 40 37 41
REMARK H PARENT 23 27
REMARK Flexibility Score:   91.800
ROOT
ATOM      1  C   UNL     1      30.699  15.304  -5.322  1.00  0.00     0.022 A
ATOM      2  C   UNL     1      31.559  14.617  -4.444  1.00  0.00     0.036 A
ATOM      3  C   UNL     1      32.745  15.192  -3.962  1.00  0.00     0.042 A
ATOM      4  C   UNL     1      33.052  16.498  -4.377  1.00  0.00     0.030 A
ATOM      5  C   UNL     1      32.223  17.191  -5.261  1.00  0.00     0.049 A
ATOM      6  C   UNL     1      31.072  16.581  -5.754  1.00  0.00     0.125 A
ENDROOT
BRANCH   1   7
ATOM      7  C   UNL     1      29.457  14.632  -5.855  1.00  0.00     0.200 C
BRANCH   7   8
ATOM      8  O   UNL     1      28.422  14.563  -4.870  1.00  0.00    -0.372 OA
BRANCH   8   9
ATOM      9  C   UNL     1      27.445  15.589  -5.059  1.00  0.00     0.192 C
BRANCH   9  10
ATOM     10  C   UNL     1      26.561  15.336  -6.267  1.00  0.00    -0.036 C
ATOM     11  C   UNL     1      25.834  14.198  -6.335  1.00  0.00     0.003 C
ATOM     12  G   UNL     1      24.904  13.747  -7.423  1.00  0.00     0.000 C
BRANCH  10  13
ATOM     13  C   UNL     1      26.499  16.452  -7.281  1.00  0.00     0.102 C
BRANCH  13  14
ATOM     14  S   UNL     1      27.513  16.052  -8.738  1.00  0.00    -0.156 SA
BRANCH  14  15
ATOM     15  C   UNL     1      26.347  16.543 -10.059  1.00  0.00     0.089 C
ATOM     16  G   UNL     1      26.657  17.934 -10.662  1.00  0.00     0.000 C
ENDBRANCH  14  15
ENDBRANCH  13  14
ENDBRANCH  10  13
ENDBRANCH   9  10
ENDBRANCH   8   9
ENDBRANCH   7   8
ENDBRANCH   1   7
BRANCH   6  17
ATOM     17  O   UNL     1      30.275  17.272  -6.626  1.00  0.00    -0.492 OA
BRANCH  17  18
ATOM     18  C   UNL     1      30.142  18.653  -6.254  1.00  0.00     0.245 C
BRANCH  18  19
ATOM     19  C   UNL     1      28.698  18.968  -5.800  1.00  0.00     0.126 C
BRANCH  19  20
ATOM     20  N   UNL     1      28.166  20.259  -6.269  1.00  0.00    -0.296 NA
ATOM     21  C   UNL     1      29.219  21.248  -6.506  1.00  0.00     0.085 C
ATOM     22  C   UNL     1      27.351  20.152  -7.504  1.00  0.00     0.066 C
ATOM     23  C   UNL     1      28.527  22.271  -7.376  1.00  0.00     0.017 C
ATOM     24  C   UNL     1      27.725  21.402  -8.323  1.00  0.00     0.021 C
ATOM     25  G   UNL     1      25.836  20.157  -7.191  1.00  0.00     0.000 C
ENDBRANCH  19  20
ENDBRANCH  18  19
ENDBRANCH  17  18
ENDBRANCH   6  17
BRANCH   3  26
ATOM     26  N   UNL     1      33.670  14.515  -3.156  1.00  0.00    -0.324 N
ATOM     27  H   UNL     1      34.362  15.069  -2.677  1.00  0.00     0.170 HD
BRANCH  26  28
ATOM     28  C   UNL     1      33.876  13.166  -2.882  1.00  0.00     0.227 A
ATOM     29  N   UNL     1      35.026  12.860  -2.261  1.00  0.00    -0.221 NA
ATOM     30  N   UNL     1      32.995  12.240  -3.266  1.00  0.00    -0.212 NA
ATOM     31  C   UNL     1      35.274  11.556  -2.029  1.00  0.00     0.117 A
ATOM     32  C   UNL     1      33.270  10.946  -3.010  1.00  0.00     0.086 A
ATOM     33  C   UNL     1      34.425  10.541  -2.392  1.00  0.00     0.050 A
BRANCH  32  34
ATOM     34  C   UNL     1      32.244  10.005  -3.464  1.00  0.00     0.053 A
ATOM     35  C   UNL     1      32.164   8.633  -3.315  1.00  0.00     0.022 A
ATOM     36  S   UNL     1      30.886  10.604  -4.322  1.00  0.00    -0.136 S
ATOM     37  C   UNL     1      31.040   8.074  -3.999  1.00  0.00     0.018 A
ATOM     38  C   UNL     1      30.277   9.036  -4.628  1.00  0.00     0.031 A
BRANCH  38  39
ATOM     39  C   UNL     1      29.067   8.873  -5.492  1.00  0.00     0.207 C
BRANCH  39  40
ATOM     40  O   UNL     1      29.528   8.412  -6.761  1.00  0.00    -0.372 OA
BRANCH  40  41
ATOM     41  C   UNL     1      28.870   7.231  -7.217  1.00  0.00     0.188 C
ATOM     42  G   UNL     1      27.816   7.587  -8.224  1.00  0.00     0.000 C
ENDBRANCH  40  41
ENDBRANCH  39  40
ENDBRANCH  38  39
ENDBRANCH  32  34
ENDBRANCH  26  28
ENDBRANCH   3  26
TORSDOF 0
ENDMDL
MODEL 3
REMARK VINA RESULT:      -7.2      1.083      1.528
REMARK SMILES C1=C2/COCc3cc(ccc3OCCN3CCC[C@@H]3CSC2)Nc2nccc(n2)-c2ccc(s2)COC/1
REMARK SMILES IDX 6 1 7 2 8 3 9 4 10 5 11 6 5 7 4 8 3 9 2 10 1 11 22 13 21 14
REMARK SMILES IDX 20 15 12 17 13 18 14 19 15 20 16 21 19 22 17 23 18 24 23 26
REMARK SMILES IDX 24 28 25 29 29 30 26 31 28 32 27 33 30 34 31 35 34 36 32 37
REMARK SMILES IDX 33 38 35 39 36 40 37 41
REMARK H PARENT 23 27
REMARK Flexibility Score:   91.800
ROOT
ATOM      1  C   UNL     1      30.267  14.882  -4.440  1.00  0.00     0.022 A
ATOM      2  C   UNL     1      31.035  13.702  -4.388  1.00  0.00     0.036 A
ATOM      3  C   UNL     1      32.344  13.688  -3.884  1.00  0.00     0.042 A
ATOM      4  C   UNL     1      32.876  14.900  -3.414  1.00  0.00     0.030 A
ATOM      5  C   UNL     1      32.139  16.085  -3.471  1.00  0.00     0.049 A
ATOM      6  C   UNL     1      30.856  16.077  -4.012  1.00  0.00     0.125 A
ENDROOT
BRANCH   1   7
ATOM      7  C   UNL     1      28.880  14.865  -5.033  1.00  0.00     0.200 C
BRANCH   7   8
ATOM      8  O   UNL     1      28.836  14.144  -6.268  1.00  0.00    -0.372 OA
BRANCH   8   9
ATOM      9  C   UNL     1      27.539  13.598  -6.515  1.00  0.00     0.192 C
BRANCH   9  10
ATOM     10  C   UNL     1      26.983  14.004  -7.868  1.00  0.00    -0.036 C
ATOM     11  C   UNL     1      27.185  13.204  -8.940  1.00  0.00     0.003 C
ATOM     12  G   UNL     1      26.731  13.408 -10.355  1.00  0.00     0.000 C
BRANCH  10  13
ATOM     13  C   UNL     1      26.153  15.264  -7.885  1.00  0.00     0.102 C
BRANCH  13  14
ATOM     14  S   UNL     1      27.041  16.608  -8.731  1.00  0.00    -0.156 SA
BRANCH  14  15
ATOM     15  C   UNL     1      27.459  17.649  -7.286  1.00  0.00     0.089 C
ATOM     16  G   UNL     1      26.590  17.345  -6.042  1.00  0.00     0.000 C
ENDBRANCH  14  15
ENDBRANCH  13  14
ENDBRANCH  10  13
ENDBRANCH   9  10
ENDBRANCH   8   9
ENDBRANCH   7   8
ENDBRANCH   1   7
BRANCH   6  17
ATOM     17  O   UNL     1      30.152  17.249  -4.069  1.00  0.00    -0.492 OA
BRANCH  17  18
ATOM     18  C   UNL     1      30.483  18.019  -5.236  1.00  0.00     0.245 C
BRANCH  18  19
ATOM     19  C   UNL     1      31.205  19.330  -4.849  1.00  0.00     0.126 C
BRANCH  19  20
ATOM     20  N   UNL     1      32.640  19.373  -5.182  1.00  0.00    -0.296 NA
ATOM     21  C   UNL     1      33.053  18.249  -6.025  1.00  0.00     0.085 C
ATOM     22  C   UNL     1      33.056  20.628  -5.853  1.00  0.00     0.066 C
ATOM     23  C   UNL     1      34.369  18.727  -6.595  1.00  0.00     0.017 C
ATOM     24  C   UNL     1      34.077  20.178  -6.916  1.00  0.00     0.021 C
ATOM     25  G   UNL     1      33.722  21.612  -4.861  1.00  0.00     0.000 C
ENDBRANCH  19  20
ENDBRANCH  18  19
ENDBRANCH  17  18
ENDBRANCH   6  17
BRANCH   3  26
ATOM     26  N   UNL     1      33.172  12.557  -3.891  1.00  0.00    -0.324 N
ATOM     27  H   UNL     1      34.087  12.653  -4.302  1.00  0.00     0.170 HD
BRANCH  26  28
ATOM     28  C   UNL     1      32.985  11.246  -3.462  1.00  0.00     0.227 A
ATOM     29  N   UNL     1      33.813  10.820  -2.495  1.00  0.00    -0.221 NA
ATOM     30  N   UNL     1      32.066  10.459  -4.024  1.00  0.00    -0.212 NA
ATOM     31  C   UNL     1      33.687   9.538  -2.096  1.00  0.00     0.117 A
ATOM     32  C   UNL     1      31.960   9.186  -3.596  1.00  0.00     0.086 A
ATOM     33  C   UNL     1      32.771   8.662  -2.621  1.00  0.00     0.050 A
BRANCH  32  34
ATOM     34  C   UNL     1      30.922   8.402  -4.267  1.00  0.00     0.053 A
ATOM     35  C   UNL     1      30.758   7.032  -4.358  1.00  0.00     0.022 A
ATOM     36  S   UNL     1      29.667   9.221  -5.099  1.00  0.00    -0.136 S
ATOM     37  C   UNL     1      29.660   6.668  -5.198  1.00  0.00     0.018 A
ATOM     38  C   UNL     1      29.000   7.769  -5.704  1.00  0.00     0.031 A
BRANCH  38  39
ATOM     39  C   UNL     1      27.851   7.829  -6.660  1.00  0.00     0.207 C
BRANCH  39  40
ATOM     40  O   UNL     1      28.130   8.892  -7.571  1.00  0.00    -0.372 OA
BRANCH  40  41
ATOM     41  C   UNL     1      27.007   9.731  -7.837  1.00  0.00     0.188 C
ATOM     42  G   UNL     1      25.942   8.951  -8.550  1.00  0.00     0.000 C
ENDBRANCH  40  41
ENDBRANCH  39  40
ENDBRANCH  38  39
ENDBRANCH  32  34
ENDBRANCH  26  28
ENDBRANCH   3  26
TORSDOF 0
ENDMDL
MODEL 4
REMARK VINA RESULT:      -7.1      1.451      2.744
REMARK SMILES C1=C2/COCc3cc(ccc3OCCN3CCC[C@@H]3CSC2)Nc2nccc(n2)-c2ccc(s2)COC/1
REMARK SMILES IDX 6 1 7 2 8 3 9 4 10 5 11 6 5 7 4 8 3 9 2 10 1 11 22 13 21 14
REMARK SMILES IDX 20 15 12 17 13 18 14 19 15 20 16 21 19 22 17 23 18 24 23 26
REMARK SMILES IDX 24 28 25 29 29 30 26 31 28 32 27 33 30 34 31 35 34 36 32 37
REMARK SMILES IDX 33 38 35 39 36 40 37 41
REMARK H PARENT 23 27
REMARK Flexibility Score:   91.800
ROOT
ATOM      1  C   UNL     1      29.797  15.113  -5.400  1.00  0.00     0.022 A
ATOM      2  C   UNL     1      30.700  14.040  -5.281  1.00  0.00     0.036 A
ATOM      3  C   UNL     1      31.670  13.991  -4.267  1.00  0.00     0.042 A
ATOM      4  C   UNL     1      31.709  15.055  -3.352  1.00  0.00     0.030 A
ATOM      5  C   UNL     1      30.834  16.138  -3.461  1.00  0.00     0.049 A
ATOM      6  C   UNL     1      29.908  16.178  -4.499  1.00  0.00     0.125 A
ENDROOT
BRANCH   1   7
ATOM      7  C   UNL     1      28.801  15.151  -6.533  1.00  0.00     0.200 C
BRANCH   7   8
ATOM      8  O   UNL     1      27.623  14.395  -6.234  1.00  0.00    -0.372 OA
BRANCH   8   9
ATOM      9  C   UNL     1      27.450  13.307  -7.143  1.00  0.00     0.192 C
BRANCH   9  10
ATOM     10  C   UNL     1      26.198  13.448  -7.991  1.00  0.00    -0.036 C
ATOM     11  C   UNL     1      25.706  14.680  -8.254  1.00  0.00     0.003 C
ATOM     12  G   UNL     1      24.495  15.050  -9.059  1.00  0.00     0.000 C
BRANCH  10  13
ATOM     13  C   UNL     1      25.641  12.166  -8.557  1.00  0.00     0.102 C
BRANCH  13  14
ATOM     14  S   UNL     1      26.349  11.828 -10.200  1.00  0.00    -0.156 SA
BRANCH  14  15
ATOM     15  C   UNL     1      26.665  10.035 -10.028  1.00  0.00     0.089 C
ATOM     16  G   UNL     1      28.144   9.649 -10.272  1.00  0.00     0.000 C
ENDBRANCH  14  15
ENDBRANCH  13  14
ENDBRANCH  10  13
ENDBRANCH   9  10
ENDBRANCH   8   9
ENDBRANCH   7   8
ENDBRANCH   1   7
BRANCH   6  17
ATOM     17  O   UNL     1      29.064  17.252  -4.596  1.00  0.00    -0.492 OA
BRANCH  17  18
ATOM     18  C   UNL     1      29.783  18.491  -4.715  1.00  0.00     0.245 C
BRANCH  18  19
ATOM     19  C   UNL     1      30.038  18.843  -6.199  1.00  0.00     0.126 C
BRANCH  19  20
ATOM     20  N   UNL     1      31.430  19.203  -6.522  1.00  0.00    -0.296 NA
ATOM     21  C   UNL     1      31.762  20.573  -6.127  1.00  0.00     0.085 C
ATOM     22  C   UNL     1      32.433  18.293  -5.917  1.00  0.00     0.066 C
ATOM     23  C   UNL     1      33.273  20.561  -6.123  1.00  0.00     0.017 C
ATOM     24  C   UNL     1      33.586  19.221  -5.490  1.00  0.00     0.021 C
ATOM     25  G   UNL     1      32.945  17.248  -6.937  1.00  0.00     0.000 C
ENDBRANCH  19  20
ENDBRANCH  18  19
ENDBRANCH  17  18
ENDBRANCH   6  17
BRANCH   3  26
ATOM     26  N   UNL     1      32.641  12.987  -4.162  1.00  0.00    -0.324 N
ATOM     27  H   UNL     1      33.572  13.206  -4.477  1.00  0.00     0.170 HD
BRANCH  26  28
ATOM     28  C   UNL     1      32.591  11.666  -3.724  1.00  0.00     0.227 A
ATOM     29  N   UNL     1      33.491  11.322  -2.790  1.00  0.00    -0.221 NA
ATOM     30  N   UNL     1      31.727  10.795  -4.249  1.00  0.00    -0.212 NA
ATOM     31  C   UNL     1      33.498  10.036  -2.384  1.00  0.00     0.117 A
ATOM     32  C   UNL     1      31.755   9.521  -3.815  1.00  0.00     0.086 A
ATOM     33  C   UNL     1      32.647   9.077  -2.873  1.00  0.00     0.050 A
BRANCH  32  34
ATOM     34  C   UNL     1      30.768   8.642  -4.445  1.00  0.00     0.053 A
ATOM     35  C   UNL     1      30.643   7.265  -4.402  1.00  0.00     0.022 A
ATOM     36  S   UNL     1      29.530   9.334  -5.408  1.00  0.00    -0.136 S
ATOM     37  C   UNL     1      29.593   6.785  -5.245  1.00  0.00     0.018 A
ATOM     38  C   UNL     1      28.927   7.808  -5.887  1.00  0.00     0.031 A
BRANCH  38  39
ATOM     39  C   UNL     1      27.820   7.737  -6.891  1.00  0.00     0.207 C
BRANCH  39  40
ATOM     40  O   UNL     1      26.828   6.869  -6.347  1.00  0.00    -0.372 OA
BRANCH  40  41
ATOM     41  C   UNL     1      25.936   7.513  -5.439  1.00  0.00     0.188 C
ATOM     42  G   UNL     1      25.503   6.549  -4.374  1.00  0.00     0.000 C
ENDBRANCH  40  41
ENDBRANCH  39  40
ENDBRANCH  38  39
ENDBRANCH  32  34
ENDBRANCH  26  28
ENDBRANCH   3  26
TORSDOF 0
ENDMDL
MODEL 5
REMARK VINA RESULT:      -7.1      1.661      2.800
REMARK SMILES C1=C2/COCc3cc(ccc3OCCN3CCC[C@@H]3CSC2)Nc2nccc(n2)-c2ccc(s2)COC/1
REMARK SMILES IDX 6 1 7 2 8 3 9 4 10 5 11 6 5 7 4 8 3 9 2 10 1 11 22 13 21 14
REMARK SMILES IDX 20 15 12 17 13 18 14 19 15 20 16 21 19 22 17 23 18 24 23 26
REMARK SMILES IDX 24 28 25 29 29 30 26 31 28 32 27 33 30 34 31 35 34 36 32 37
REMARK SMILES IDX 33 38 35 39 36 40 37 41
REMARK H PARENT 23 27
REMARK Flexibility Score:   91.800
ROOT
ATOM      1  C   UNL     1      31.582  14.830  -4.350  1.00  0.00     0.022 A
ATOM      2  C   UNL     1      31.820  13.481  -4.023  1.00  0.00     0.036 A
ATOM      3  C   UNL     1      32.963  13.078  -3.315  1.00  0.00     0.042 A
ATOM      4  C   UNL     1      33.873  14.073  -2.925  1.00  0.00     0.030 A
ATOM      5  C   UNL     1      33.665  15.414  -3.253  1.00  0.00     0.049 A
ATOM      6  C   UNL     1      32.541  15.781  -3.990  1.00  0.00     0.125 A
ENDROOT
BRANCH   1   7
ATOM      7  C   UNL     1      30.365  15.216  -5.155  1.00  0.00     0.200 C
BRANCH   7   8
ATOM      8  O   UNL     1      29.149  14.935  -4.454  1.00  0.00    -0.372 OA
BRANCH   8   9
ATOM      9  C   UNL     1      28.106  14.538  -5.345  1.00  0.00     0.192 C
BRANCH   9  10
ATOM     10  C   UNL     1      27.671  15.661  -6.270  1.00  0.00    -0.036 C
ATOM     11  C   UNL     1      27.097  16.770  -5.751  1.00  0.00     0.003 C
ATOM     12  G   UNL     1      26.597  17.988  -6.471  1.00  0.00     0.000 C
BRANCH  10  13
ATOM     13  C   UNL     1      28.007  15.475  -7.729  1.00  0.00     0.102 C
BRANCH  13  14
ATOM     14  S   UNL     1      27.096  14.060  -8.422  1.00  0.00    -0.156 SA
BRANCH  14  15
ATOM     15  C   UNL     1      25.384  14.651  -8.168  1.00  0.00     0.089 C
ATOM     16  G   UNL     1      24.396  13.520  -7.797  1.00  0.00     0.000 C
ENDBRANCH  14  15
ENDBRANCH  13  14
ENDBRANCH  10  13
ENDBRANCH   9  10
ENDBRANCH   8   9
ENDBRANCH   7   8
ENDBRANCH   1   7
BRANCH   6  17
ATOM     17  O   UNL     1      32.358  17.099  -4.311  1.00  0.00    -0.492 OA
BRANCH  17  18
ATOM     18  C   UNL     1      33.236  17.522  -5.367  1.00  0.00     0.245 C
BRANCH  18  19
ATOM     19  C   UNL     1      32.435  18.123  -6.545  1.00  0.00     0.126 C
BRANCH  19  20
ATOM     20  N   UNL     1      32.323  19.592  -6.537  1.00  0.00    -0.296 NA
ATOM     21  C   UNL     1      31.011  20.052  -6.078  1.00  0.00     0.085 C
ATOM     22  C   UNL     1      33.359  20.261  -5.712  1.00  0.00     0.066 C
ATOM     23  C   UNL     1      31.271  21.498  -5.723  1.00  0.00     0.017 C
ATOM     24  C   UNL     1      32.616  21.426  -5.030  1.00  0.00     0.021 C
ATOM     25  G   UNL     1      34.516  20.807  -6.581  1.00  0.00     0.000 C
ENDBRANCH  19  20
ENDBRANCH  18  19
ENDBRANCH  17  18
ENDBRANCH   6  17
BRANCH   3  26
ATOM     26  N   UNL     1      33.282  11.741  -3.043  1.00  0.00    -0.324 N
ATOM     27  H   UNL     1      34.192  11.550  -2.655  1.00  0.00     0.170 HD
BRANCH  26  28
ATOM     28  C   UNL     1      32.591  10.547  -3.233  1.00  0.00     0.227 A
ATOM     29  N   UNL     1      33.135   9.457  -2.668  1.00  0.00    -0.221 NA
ATOM     30  N   UNL     1      31.485  10.498  -3.976  1.00  0.00    -0.212 NA
ATOM     31  C   UNL     1      32.514   8.279  -2.878  1.00  0.00     0.117 A
ATOM     32  C   UNL     1      30.885   9.307  -4.159  1.00  0.00     0.086 A
ATOM     33  C   UNL     1      31.375   8.140  -3.630  1.00  0.00     0.050 A
BRANCH  32  34
ATOM     34  C   UNL     1      29.676   9.354  -4.984  1.00  0.00     0.053 A
ATOM     35  C   UNL     1      28.815  10.404  -5.246  1.00  0.00     0.022 A
ATOM     36  S   UNL     1      29.166   7.933  -5.796  1.00  0.00    -0.136 S
ATOM     37  C   UNL     1      27.688  10.004  -6.028  1.00  0.00     0.018 A
ATOM     38  C   UNL     1      27.731   8.667  -6.364  1.00  0.00     0.031 A
BRANCH  38  39
ATOM     39  C   UNL     1      26.730   7.844  -7.112  1.00  0.00     0.207 C
BRANCH  39  40
ATOM     40  O   UNL     1      26.894   6.497  -6.670  1.00  0.00    -0.372 OA
BRANCH  40  41
ATOM     41  C   UNL     1      26.282   5.533  -7.526  1.00  0.00     0.188 C
ATOM     42  G   UNL     1      24.892   5.232  -7.048  1.00  0.00     0.000 C
ENDBRANCH  40  41
ENDBRANCH  39  40
ENDBRANCH  38  39
ENDBRANCH  32  34
ENDBRANCH  26  28
ENDBRANCH   3  26
TORSDOF 0
ENDMDL
MODEL 6
REMARK VINA RESULT:      -7.0      2.396      9.172
REMARK SMILES C1=C2/COCc3cc(ccc3OCCN3CCC[C@@H]3CSC2)Nc2nccc(n2)-c2ccc(s2)COC/1
REMARK SMILES IDX 6 1 7 2 8 3 9 4 10 5 11 6 5 7 4 8 3 9 2 10 1 11 22 13 21 14
REMARK SMILES IDX 20 15 12 17 13 18 14 19 15 20 16 21 19 22 17 23 18 24 23 26
REMARK SMILES IDX 24 28 25 29 29 30 26 31 28 32 27 33 30 34 31 35 34 36 32 37
REMARK SMILES IDX 33 38 35 39 36 40 37 41
REMARK H PARENT 23 27
REMARK Flexibility Score:   91.800
ROOT
ATOM      1  C   UNL     1      29.410  12.781  -4.850  1.00  0.00     0.022 A
ATOM      2  C   UNL     1      28.322  13.673  -4.930  1.00  0.00     0.036 A
ATOM      3  C   UNL     1      28.452  14.957  -5.481  1.00  0.00     0.042 A
ATOM      4  C   UNL     1      29.714  15.332  -5.970  1.00  0.00     0.030 A
ATOM      5  C   UNL     1      30.810  14.470  -5.885  1.00  0.00     0.049 A
ATOM      6  C   UNL     1      30.661  13.216  -5.298  1.00  0.00     0.125 A
ENDROOT
BRANCH   1   7
ATOM      7  C   UNL     1      29.240  11.427  -4.206  1.00  0.00     0.200 C
BRANCH   7   8
ATOM      8  O   UNL     1      28.962  10.407  -5.170  1.00  0.00    -0.372 OA
BRANCH   8   9
ATOM      9  C   UNL     1      29.915   9.344  -5.103  1.00  0.00     0.192 C
BRANCH   9  10
ATOM     10  C   UNL     1      29.512   8.147  -5.946  1.00  0.00    -0.036 C
ATOM     11  C   UNL     1      29.579   6.905  -5.416  1.00  0.00     0.003 C
ATOM     12  G   UNL     1      29.236   5.594  -6.061  1.00  0.00     0.000 C
BRANCH  10  13
ATOM     13  C   UNL     1      28.972   8.464  -7.318  1.00  0.00     0.102 C
BRANCH  13  14
ATOM     14  S   UNL     1      27.165   8.678  -7.263  1.00  0.00    -0.156 SA
BRANCH  14  15
ATOM     15  C   UNL     1      26.966   9.898  -8.612  1.00  0.00     0.089 C
ATOM     16  G   UNL     1      26.568  11.306  -8.110  1.00  0.00     0.000 C
ENDBRANCH  14  15
ENDBRANCH  13  14
ENDBRANCH  10  13
ENDBRANCH   9  10
ENDBRANCH   8   9
ENDBRANCH   7   8
ENDBRANCH   1   7
BRANCH   6  17
ATOM     17  O   UNL     1      31.748  12.388  -5.215  1.00  0.00    -0.492 OA
BRANCH  17  18
ATOM     18  C   UNL     1      32.571  12.695  -4.078  1.00  0.00     0.245 C
BRANCH  18  19
ATOM     19  C   UNL     1      32.781  11.444  -3.193  1.00  0.00     0.126 C
BRANCH  19  20
ATOM     20  N   UNL     1      34.174  11.198  -2.784  1.00  0.00    -0.296 NA
ATOM     21  C   UNL     1      34.825  12.399  -2.257  1.00  0.00     0.085 C
ATOM     22  C   UNL     1      34.314  10.119  -1.775  1.00  0.00     0.066 C
ATOM     23  C   UNL     1      36.011  11.834  -1.509  1.00  0.00     0.017 C
ATOM     24  C   UNL     1      35.415  10.623  -0.822  1.00  0.00     0.021 C
ATOM     25  G   UNL     1      34.747   8.783  -2.425  1.00  0.00     0.000 C
ENDBRANCH  19  20
ENDBRANCH  18  19
ENDBRANCH  17  18
ENDBRANCH   6  17
BRANCH   3  26
ATOM     26  N   UNL     1      27.421  15.905  -5.504  1.00  0.00    -0.324 N
ATOM     27  H   UNL     1      26.503  15.601  -5.221  1.00  0.00     0.170 HD
BRANCH  26  28
ATOM     28  C   UNL     1      27.377  17.243  -5.886  1.00  0.00     0.227 A
ATOM     29  N   UNL     1      26.211  17.670  -6.397  1.00  0.00    -0.221 NA
ATOM     30  N   UNL     1      28.452  18.027  -5.790  1.00  0.00    -0.212 NA
ATOM     31  C   UNL     1      26.156  18.948  -6.823  1.00  0.00     0.117 A
ATOM     32  C   UNL     1      28.360  19.301  -6.215  1.00  0.00     0.086 A
ATOM     33  C   UNL     1      27.214  19.819  -6.762  1.00  0.00     0.050 A
BRANCH  32  34
ATOM     34  C   UNL     1      29.589  20.083  -6.065  1.00  0.00     0.053 A
ATOM     35  C   UNL     1      29.853  21.400  -6.393  1.00  0.00     0.022 A
ATOM     36  S   UNL     1      30.973  19.337  -5.383  1.00  0.00    -0.136 S
ATOM     37  C   UNL     1      31.221  21.753  -6.177  1.00  0.00     0.018 A
ATOM     38  C   UNL     1      31.958  20.705  -5.665  1.00  0.00     0.031 A
BRANCH  38  39
ATOM     39  C   UNL     1      33.420  20.634  -5.356  1.00  0.00     0.207 C
BRANCH  39  40
ATOM     40  O   UNL     1      33.797  19.263  -5.466  1.00  0.00    -0.372 OA
BRANCH  40  41
ATOM     41  C   UNL     1      34.293  18.905  -6.755  1.00  0.00     0.188 C
ATOM     42  G   UNL     1      33.743  17.570  -7.164  1.00  0.00     0.000 C
ENDBRANCH  40  41
ENDBRANCH  39  40
ENDBRANCH  38  39
ENDBRANCH  32  34
ENDBRANCH  26  28
ENDBRANCH   3  26
TORSDOF 0
ENDMDL
MODEL 7
REMARK VINA RESULT:      -7.0      2.105      4.830
REMARK SMILES C1=C2/COCc3cc(ccc3OCCN3CCC[C@@H]3CSC2)Nc2nccc(n2)-c2ccc(s2)COC/1
REMARK SMILES IDX 6 1 7 2 8 3 9 4 10 5 11 6 5 7 4 8 3 9 2 10 1 11 22 13 21 14
REMARK SMILES IDX 20 15 12 17 13 18 14 19 15 20 16 21 19 22 17 23 18 24 23 26
REMARK SMILES IDX 24 28 25 29 29 30 26 31 28 32 27 33 30 34 31 35 34 36 32 37
REMARK SMILES IDX 33 38 35 39 36 40 37 41
REMARK H PARENT 23 27
REMARK Flexibility Score:   91.800
ROOT
ATOM      1  C   UNL     1      30.884  15.903  -5.293  1.00  0.00     0.022 A
ATOM      2  C   UNL     1      31.905  14.952  -5.097  1.00  0.00     0.036 A
ATOM      3  C   UNL     1      32.142  14.363  -3.846  1.00  0.00     0.042 A
ATOM      4  C   UNL     1      31.314  14.744  -2.777  1.00  0.00     0.030 A
ATOM      5  C   UNL     1      30.307  15.697  -2.945  1.00  0.00     0.049 A
ATOM      6  C   UNL     1      30.119  16.294  -4.189  1.00  0.00     0.125 A
ENDROOT
BRANCH   1   7
ATOM      7  C   UNL     1      30.692  16.549  -6.643  1.00  0.00     0.200 C
BRANCH   7   8
ATOM      8  O   UNL     1      31.648  17.587  -6.879  1.00  0.00    -0.372 OA
BRANCH   8   9
ATOM      9  C   UNL     1      31.931  18.325  -5.689  1.00  0.00     0.192 C
BRANCH   9  10
ATOM     10  C   UNL     1      31.239  19.677  -5.664  1.00  0.00    -0.036 C
ATOM     11  C   UNL     1      30.120  19.868  -6.399  1.00  0.00     0.003 C
ATOM     12  G   UNL     1      29.284  21.108  -6.523  1.00  0.00     0.000 C
BRANCH  10  13
ATOM     13  C   UNL     1      31.829  20.698  -4.722  1.00  0.00     0.102 C
BRANCH  13  14
ATOM     14  S   UNL     1      32.638  22.037  -5.652  1.00  0.00    -0.156 SA
BRANCH  14  15
ATOM     15  C   UNL     1      34.200  21.195  -6.093  1.00  0.00     0.089 C
ATOM     16  G   UNL     1      35.363  22.175  -6.381  1.00  0.00     0.000 C
ENDBRANCH  14  15
ENDBRANCH  13  14
ENDBRANCH  10  13
ENDBRANCH   9  10
ENDBRANCH   8   9
ENDBRANCH   7   8
ENDBRANCH   1   7
BRANCH   6  17
ATOM     17  O   UNL     1      29.134  17.233  -4.333  1.00  0.00    -0.492 OA
BRANCH  17  18
ATOM     18  C   UNL     1      27.846  16.632  -4.545  1.00  0.00     0.245 C
BRANCH  18  19
ATOM     19  C   UNL     1      27.158  17.225  -5.797  1.00  0.00     0.126 C
BRANCH  19  20
ATOM     20  N   UNL     1      26.800  16.241  -6.834  1.00  0.00    -0.296 NA
ATOM     21  C   UNL     1      27.470  16.501  -8.109  1.00  0.00     0.085 C
ATOM     22  C   UNL     1      27.081  14.838  -6.443  1.00  0.00     0.066 C
ATOM     23  C   UNL     1      27.331  15.182  -8.833  1.00  0.00     0.017 C
ATOM     24  C   UNL     1      27.605  14.177  -7.733  1.00  0.00     0.021 C
ATOM     25  G   UNL     1      25.804  14.113  -5.957  1.00  0.00     0.000 C
ENDBRANCH  19  20
ENDBRANCH  18  19
ENDBRANCH  17  18
ENDBRANCH   6  17
BRANCH   3  26
ATOM     26  N   UNL     1      33.197  13.478  -3.586  1.00  0.00    -0.324 N
ATOM     27  H   UNL     1      34.135  13.841  -3.650  1.00  0.00     0.170 HD
BRANCH  26  28
ATOM     28  C   UNL     1      33.238  12.121  -3.275  1.00  0.00     0.227 A
ATOM     29  N   UNL     1      34.270  11.724  -2.514  1.00  0.00    -0.221 NA
ATOM     30  N   UNL     1      32.327  11.274  -3.755  1.00  0.00    -0.212 NA
ATOM     31  C   UNL     1      34.362  10.407  -2.239  1.00  0.00     0.117 A
ATOM     32  C   UNL     1      32.444   9.966  -3.455  1.00  0.00     0.086 A
ATOM     33  C   UNL     1      33.472   9.469  -2.693  1.00  0.00     0.050 A
BRANCH  32  34
ATOM     34  C   UNL     1      31.396   9.115  -4.022  1.00  0.00     0.053 A
ATOM     35  C   UNL     1      31.253   7.740  -3.996  1.00  0.00     0.022 A
ATOM     36  S   UNL     1      30.099   9.846  -4.870  1.00  0.00    -0.136 S
ATOM     37  C   UNL     1      30.132   7.293  -4.762  1.00  0.00     0.018 A
ATOM     38  C   UNL     1      29.435   8.339  -5.331  1.00  0.00     0.031 A
BRANCH  38  39
ATOM     39  C   UNL     1      28.252   8.306  -6.246  1.00  0.00     0.207 C
BRANCH  39  40
ATOM     40  O   UNL     1      27.603   7.053  -6.032  1.00  0.00    -0.372 OA
BRANCH  40  41
ATOM     41  C   UNL     1      26.179   7.134  -6.052  1.00  0.00     0.188 C
ATOM     42  G   UNL     1      25.585   5.774  -5.827  1.00  0.00     0.000 C
ENDBRANCH  40  41
ENDBRANCH  39  40
ENDBRANCH  38  39
ENDBRANCH  32  34
ENDBRANCH  26  28
ENDBRANCH   3  26
TORSDOF 0
ENDMDL
MODEL 8
REMARK VINA RESULT:      -7.0      2.794      6.068
REMARK SMILES C1=C2/COCc3cc(ccc3OCCN3CCC[C@@H]3CSC2)Nc2nccc(n2)-c2ccc(s2)COC/1
REMARK SMILES IDX 6 1 7 2 8 3 9 4 10 5 11 6 5 7 4 8 3 9 2 10 1 11 22 13 21 14
REMARK SMILES IDX 20 15 12 17 13 18 14 19 15 20 16 21 19 22 17 23 18 24 23 26
REMARK SMILES IDX 24 28 25 29 29 30 26 31 28 32 27 33 30 34 31 35 34 36 32 37
REMARK SMILES IDX 33 38 35 39 36 40 37 41
REMARK H PARENT 23 27
REMARK Flexibility Score:   91.800
ROOT
ATOM      1  C   UNL     1      29.415  14.448  -4.393  1.00  0.00     0.022 A
ATOM      2  C   UNL     1      29.405  13.041  -4.439  1.00  0.00     0.036 A
ATOM      3  C   UNL     1      28.533  12.330  -5.278  1.00  0.00     0.042 A
ATOM      4  C   UNL     1      27.662  13.072  -6.092  1.00  0.00     0.030 A
ATOM      5  C   UNL     1      27.643  14.468  -6.050  1.00  0.00     0.049 A
ATOM      6  C   UNL     1      28.493  15.146  -5.180  1.00  0.00     0.125 A
ENDROOT
BRANCH   1   7
ATOM      7  C   UNL     1      30.335  15.174  -3.442  1.00  0.00     0.200 C
BRANCH   7   8
ATOM      8  O   UNL     1      31.451  15.759  -4.120  1.00  0.00    -0.372 OA
BRANCH   8   9
ATOM      9  C   UNL     1      31.340  17.182  -4.188  1.00  0.00     0.192 C
BRANCH   9  10
ATOM     10  C   UNL     1      32.298  17.794  -5.195  1.00  0.00    -0.036 C
ATOM     11  C   UNL     1      32.723  17.056  -6.245  1.00  0.00     0.003 C
ATOM     12  G   UNL     1      33.659  17.453  -7.348  1.00  0.00     0.000 C
BRANCH  10  13
ATOM     13  C   UNL     1      32.635  19.248  -4.979  1.00  0.00     0.102 C
BRANCH  13  14
ATOM     14  S   UNL     1      31.152  20.187  -4.500  1.00  0.00    -0.156 SA
BRANCH  14  15
ATOM     15  C   UNL     1      31.001  21.278  -5.961  1.00  0.00     0.089 C
ATOM     16  G   UNL     1      29.537  21.497  -6.411  1.00  0.00     0.000 C
ENDBRANCH  14  15
ENDBRANCH  13  14
ENDBRANCH  10  13
ENDBRANCH   9  10
ENDBRANCH   8   9
ENDBRANCH   7   8
ENDBRANCH   1   7
BRANCH   6  17
ATOM     17  O   UNL     1      28.454  16.514  -5.145  1.00  0.00    -0.492 OA
BRANCH  17  18
ATOM     18  C   UNL     1      27.180  17.026  -5.568  1.00  0.00     0.245 C
BRANCH  18  19
ATOM     19  C   UNL     1      27.348  18.348  -6.354  1.00  0.00     0.126 C
BRANCH  19  20
ATOM     20  N   UNL     1      27.084  18.249  -7.800  1.00  0.00    -0.296 NA
ATOM     21  C   UNL     1      26.357  17.029  -8.156  1.00  0.00     0.085 C
ATOM     22  C   UNL     1      26.334  19.407  -8.346  1.00  0.00     0.066 C
ATOM     23  C   UNL     1      25.817  17.352  -9.530  1.00  0.00     0.017 C
ATOM     24  C   UNL     1      25.364  18.789  -9.371  1.00  0.00     0.021 C
ATOM     25  G   UNL     1      27.274  20.417  -9.047  1.00  0.00     0.000 C
ENDBRANCH  19  20
ENDBRANCH  18  19
ENDBRANCH  17  18
ENDBRANCH   6  17
BRANCH   3  26
ATOM     26  N   UNL     1      28.430  10.933  -5.295  1.00  0.00    -0.324 N
ATOM     27  H   UNL     1      27.537  10.535  -5.537  1.00  0.00     0.170 HD
BRANCH  26  28
ATOM     28  C   UNL     1      29.334   9.915  -5.000  1.00  0.00     0.227 A
ATOM     29  N   UNL     1      28.974   8.680  -5.382  1.00  0.00    -0.221 NA
ATOM     30  N   UNL     1      30.462  10.164  -4.333  1.00  0.00    -0.212 NA
ATOM     31  C   UNL     1      29.807   7.669  -5.065  1.00  0.00     0.117 A
ATOM     32  C   UNL     1      31.277   9.132  -4.040  1.00  0.00     0.086 A
ATOM     33  C   UNL     1      30.984   7.836  -4.381  1.00  0.00     0.050 A
BRANCH  32  34
ATOM     34  C   UNL     1      32.491   9.503  -3.312  1.00  0.00     0.053 A
ATOM     35  C   UNL     1      33.292   8.751  -2.472  1.00  0.00     0.022 A
ATOM     36  S   UNL     1      33.096  11.100  -3.460  1.00  0.00    -0.136 S
ATOM     37  C   UNL     1      34.337   9.525  -1.877  1.00  0.00     0.018 A
ATOM     38  C   UNL     1      34.322  10.838  -2.298  1.00  0.00     0.031 A
BRANCH  38  39
ATOM     39  C   UNL     1      35.192  11.980  -1.876  1.00  0.00     0.207 C
BRANCH  39  40
ATOM     40  O   UNL     1      35.151  12.939  -2.932  1.00  0.00    -0.372 OA
BRANCH  40  41
ATOM     41  C   UNL     1      35.415  14.275  -2.506  1.00  0.00     0.188 C
ATOM     42  G   UNL     1      34.274  15.170  -2.889  1.00  0.00     0.000 C
ENDBRANCH  40  41
ENDBRANCH  39  40
ENDBRANCH  38  39
ENDBRANCH  32  34
ENDBRANCH  26  28
ENDBRANCH   3  26
TORSDOF 0
ENDMDL
MODEL 9
REMARK VINA RESULT:      -7.0      2.987     10.545
REMARK SMILES C1=C2/COCc3cc(ccc3OCCN3CCC[C@@H]3CSC2)Nc2nccc(n2)-c2ccc(s2)COC/1
REMARK SMILES IDX 6 1 7 2 8 3 9 4 10 5 11 6 5 7 4 8 3 9 2 10 1 11 22 13 21 14
REMARK SMILES IDX 20 15 12 17 13 18 14 19 15 20 16 21 19 22 17 23 18 24 23 26
REMARK SMILES IDX 24 28 25 29 29 30 26 31 28 32 27 33 30 34 31 35 34 36 32 37
REMARK SMILES IDX 33 38 35 39 36 40 37 41
REMARK H PARENT 23 27
REMARK Flexibility Score:   91.800
ROOT
ATOM      1  C   UNL     1      30.553  13.020  -5.065  1.00  0.00     0.022 A
ATOM      2  C   UNL     1      30.054  14.299  -4.750  1.00  0.00     0.036 A
ATOM      3  C   UNL     1      28.687  14.533  -4.537  1.00  0.00     0.042 A
ATOM      4  C   UNL     1      27.815  13.438  -4.636  1.00  0.00     0.030 A
ATOM      5  C   UNL     1      28.285  12.164  -4.963  1.00  0.00     0.049 A
ATOM      6  C   UNL     1      29.642  11.969  -5.208  1.00  0.00     0.125 A
ENDROOT
BRANCH   1   7
ATOM      7  C   UNL     1      32.024  12.820  -5.335  1.00  0.00     0.200 C
BRANCH   7   8
ATOM      8  O   UNL     1      32.837  13.353  -4.285  1.00  0.00    -0.372 OA
BRANCH   8   9
ATOM      9  C   UNL     1      32.695  12.604  -3.076  1.00  0.00     0.192 C
BRANCH   9  10
ATOM     10  C   UNL     1      33.968  11.872  -2.691  1.00  0.00    -0.036 C
ATOM     11  C   UNL     1      34.801  12.418  -1.776  1.00  0.00     0.003 C
ATOM     12  G   UNL     1      36.099  11.876  -1.253  1.00  0.00     0.000 C
BRANCH  10  13
ATOM     13  C   UNL     1      34.158  10.513  -3.317  1.00  0.00     0.102 C
BRANCH  13  14
ATOM     14  S   UNL     1      33.352   9.226  -2.315  1.00  0.00    -0.156 SA
BRANCH  14  15
ATOM     15  C   UNL     1      31.736   9.148  -3.169  1.00  0.00     0.089 C
ATOM     16  G   UNL     1      31.360   7.721  -3.635  1.00  0.00     0.000 C
ENDBRANCH  14  15
ENDBRANCH  13  14
ENDBRANCH  10  13
ENDBRANCH   9  10
ENDBRANCH   8   9
ENDBRANCH   7   8
ENDBRANCH   1   7
BRANCH   6  17
ATOM     17  O   UNL     1      30.084  10.716  -5.537  1.00  0.00    -0.492 OA
BRANCH  17  18
ATOM     18  C   UNL     1      29.004   9.773  -5.635  1.00  0.00     0.245 C
BRANCH  18  19
ATOM     19  C   UNL     1      29.351   8.633  -6.619  1.00  0.00     0.126 C
BRANCH  19  20
ATOM     20  N   UNL     1      28.200   7.839  -7.083  1.00  0.00    -0.296 NA
ATOM     21  C   UNL     1      27.990   7.946  -8.528  1.00  0.00     0.085 C
ATOM     22  C   UNL     1      28.294   6.399  -6.738  1.00  0.00     0.066 C
ATOM     23  C   UNL     1      27.110   6.754  -8.826  1.00  0.00     0.017 C
ATOM     24  C   UNL     1      27.732   5.669  -7.972  1.00  0.00     0.021 C
ATOM     25  G   UNL     1      27.449   6.055  -5.488  1.00  0.00     0.000 C
ENDBRANCH  19  20
ENDBRANCH  18  19
ENDBRANCH  17  18
ENDBRANCH   6  17
BRANCH   3  26
ATOM     26  N   UNL     1      28.138  15.802  -4.305  1.00  0.00    -0.324 N
ATOM     27  H   UNL     1      27.740  15.978  -3.397  1.00  0.00     0.170 HD
BRANCH  26  28
ATOM     28  C   UNL     1      27.983  16.926  -5.113  1.00  0.00     0.227 A
ATOM     29  N   UNL     1      26.901  16.934  -5.907  1.00  0.00    -0.221 NA
ATOM     30  N   UNL     1      28.892  17.903  -5.120  1.00  0.00    -0.212 NA
ATOM     31  C   UNL     1      26.753  17.987  -6.736  1.00  0.00     0.117 A
ATOM     32  C   UNL     1      28.708  18.944  -5.954  1.00  0.00     0.086 A
ATOM     33  C   UNL     1      27.639  19.031  -6.809  1.00  0.00     0.050 A
BRANCH  32  34
ATOM     34  C   UNL     1      29.753  19.968  -5.888  1.00  0.00     0.053 A
ATOM     35  C   UNL     1      29.812  21.221  -6.469  1.00  0.00     0.022 A
ATOM     36  S   UNL     1      31.166  19.657  -4.969  1.00  0.00    -0.136 S
ATOM     37  C   UNL     1      31.063  21.873  -6.238  1.00  0.00     0.018 A
ATOM     38  C   UNL     1      31.915  21.111  -5.465  1.00  0.00     0.031 A
BRANCH  38  39
ATOM     39  C   UNL     1      33.324  21.392  -5.047  1.00  0.00     0.207 C
BRANCH  39  40
ATOM     40  O   UNL     1      34.067  20.196  -5.278  1.00  0.00    -0.372 OA
BRANCH  40  41
ATOM     41  C   UNL     1      34.245  19.888  -6.660  1.00  0.00     0.188 C
ATOM     42  G   UNL     1      34.136  18.407  -6.874  1.00  0.00     0.000 C
ENDBRANCH  40  41
ENDBRANCH  39  40
ENDBRANCH  38  39
ENDBRANCH  32  34
ENDBRANCH  26  28
ENDBRANCH   3  26
TORSDOF 0
ENDMDL
