MODEL 1
REMARK VINA RESULT:      -7.4      0.000      0.000
REMARK SMILES C1=C2/COCc3ccc(s3)-c3ccnc(n3)Nc3ccc(c(c3)COC/1)OCCN1CCC[C@@H]1CSC2
REMARK SMILES IDX 18 1 19 2 20 3 21 4 22 5 23 6 24 7 25 8 26 9 1 10 2 11 37 13
REMARK SMILES IDX 36 14 35 15 27 17 28 18 29 19 30 20 31 21 34 22 32 23 33 24
REMARK SMILES IDX 17 26 15 28 14 29 16 30 13 31 11 32 12 33 9 34 8 35 10 36
REMARK SMILES IDX 7 37 6 38 5 39 4 40 3 41
REMARK H PARENT 17 27
REMARK Flexibility Score:   91.800
ROOT
ATOM      1  C   UNL     1      27.576  13.177  -5.635  1.00  0.00     0.042 A
ATOM      2  C   UNL     1      26.829  14.128  -6.336  1.00  0.00     0.030 A
ATOM      3  C   UNL     1      27.081  15.496  -6.178  1.00  0.00     0.049 A
ATOM      4  C   UNL     1      28.080  15.931  -5.303  1.00  0.00     0.125 A
ATOM      5  C   UNL     1      28.920  15.005  -4.677  1.00  0.00     0.022 A
ATOM      6  C   UNL     1      28.642  13.637  -4.851  1.00  0.00     0.036 A
ENDROOT
BRANCH   5   7
ATOM      7  C   UNL     1      30.039  15.381  -3.743  1.00  0.00     0.200 C
BRANCH   7   8
ATOM      8  O   UNL     1      31.252  14.967  -4.363  1.00  0.00    -0.373 OA
BRANCH   8   9
ATOM      9  C   UNL     1      31.203  15.008  -5.782  1.00  0.00     0.188 C
BRANCH   9  10
ATOM     10  C   UNL     1      32.433  15.718  -6.261  1.00  0.00     0.003 C
ATOM     11  C   UNL     1      32.574  17.037  -6.525  1.00  0.00    -0.036 C
ATOM     12  G   UNL     1      33.897  17.661  -6.929  1.00  0.00     0.000 C
BRANCH  11  13
ATOM     13  C   UNL     1      31.445  18.034  -6.369  1.00  0.00     0.102 C
BRANCH  13  14
ATOM     14  S   UNL     1      31.487  18.766  -4.703  1.00  0.00    -0.156 SA
BRANCH  14  15
ATOM     15  C   UNL     1      32.133  20.438  -5.096  1.00  0.00     0.089 C
ATOM     16  G   UNL     1      31.079  21.551  -5.324  1.00  0.00     0.000 C
ENDBRANCH  14  15
ENDBRANCH  13  14
ENDBRANCH  11  13
ENDBRANCH   9  10
ENDBRANCH   8   9
ENDBRANCH   7   8
ENDBRANCH   5   7
BRANCH   4  17
ATOM     17  O   UNL     1      28.141  17.285  -5.077  1.00  0.00    -0.492 OA
BRANCH  17  18
ATOM     18  C   UNL     1      27.275  17.983  -5.993  1.00  0.00     0.245 C
BRANCH  18  19
ATOM     19  C   UNL     1      27.852  19.361  -6.348  1.00  0.00     0.126 C
BRANCH  19  20
ATOM     20  N   UNL     1      27.166  19.956  -7.514  1.00  0.00    -0.296 NA
ATOM     21  C   UNL     1      25.939  20.657  -7.109  1.00  0.00     0.085 C
ATOM     22  C   UNL     1      27.985  20.971  -8.218  1.00  0.00     0.066 C
ATOM     23  C   UNL     1      26.334  22.100  -6.831  1.00  0.00     0.017 C
ATOM     24  C   UNL     1      27.714  22.271  -7.449  1.00  0.00     0.021 C
ATOM     25  G   UNL     1      27.608  21.131  -9.713  1.00  0.00     0.000 C
ENDBRANCH  19  20
ENDBRANCH  18  19
ENDBRANCH  17  18
ENDBRANCH   4  17
BRANCH   1  26
ATOM     26  N   UNL     1      27.153  11.839  -5.622  1.00  0.00    -0.324 N
ATOM     27  H   UNL     1      26.191  11.641  -5.400  1.00  0.00     0.170 HD
BRANCH  26  28
ATOM     28  C   UNL     1      27.908  10.666  -5.657  1.00  0.00     0.227 A
ATOM     29  N   UNL     1      27.406   9.638  -6.358  1.00  0.00    -0.221 NA
ATOM     30  N   UNL     1      29.039  10.573  -4.952  1.00  0.00    -0.212 NA
ATOM     31  C   UNL     1      28.083   8.469  -6.304  1.00  0.00     0.117 A
ATOM     32  C   UNL     1      29.674   9.390  -4.904  1.00  0.00     0.086 A
ATOM     33  C   UNL     1      29.233   8.279  -5.576  1.00  0.00     0.050 A
BRANCH  32  34
ATOM     34  C   UNL     1      30.878   9.426  -4.080  1.00  0.00     0.053 A
ATOM     35  C   UNL     1      31.422   8.401  -3.331  1.00  0.00     0.022 A
ATOM     36  S   UNL     1      31.882  10.812  -4.057  1.00  0.00    -0.136 S
ATOM     37  C   UNL     1      32.680   8.748  -2.769  1.00  0.00     0.018 A
ATOM     38  C   UNL     1      33.090  10.012  -3.140  1.00  0.00     0.031 A
BRANCH  38  39
ATOM     39  C   UNL     1      34.395  10.682  -2.839  1.00  0.00     0.207 C
BRANCH  39  40
ATOM     40  O   UNL     1      34.284  12.075  -3.153  1.00  0.00    -0.372 OA
BRANCH  40  41
ATOM     41  C   UNL     1      34.778  12.943  -2.127  1.00  0.00     0.192 C
ATOM     42  G   UNL     1      35.698  12.231  -1.153  1.00  0.00     0.000 C
ENDBRANCH  40  41
ENDBRANCH  39  40
ENDBRANCH  38  39
ENDBRANCH  32  34
ENDBRANCH  26  28
ENDBRANCH   1  26
TORSDOF 0
ENDMDL
MODEL 2
REMARK VINA RESULT:      -7.4      2.993      6.846
REMARK SMILES C1=C2/COCc3ccc(s3)-c3ccnc(n3)Nc3ccc(c(c3)COC/1)OCCN1CCC[C@@H]1CSC2
REMARK SMILES IDX 18 1 19 2 20 3 21 4 22 5 23 6 24 7 25 8 26 9 1 10 2 11 37 13
REMARK SMILES IDX 36 14 35 15 27 17 28 18 29 19 30 20 31 21 34 22 32 23 33 24
REMARK SMILES IDX 17 26 15 28 14 29 16 30 13 31 11 32 12 33 9 34 8 35 10 36
REMARK SMILES IDX 7 37 6 38 5 39 4 40 3 41
REMARK H PARENT 17 27
REMARK Flexibility Score:   91.800
ROOT
ATOM      1  C   UNL     1      31.748   8.777  -3.375  1.00  0.00     0.042 A
ATOM      2  C   UNL     1      32.822   9.048  -2.523  1.00  0.00     0.030 A
ATOM      3  C   UNL     1      33.462  10.294  -2.549  1.00  0.00     0.049 A
ATOM      4  C   UNL     1      33.040  11.282  -3.441  1.00  0.00     0.125 A
ATOM      5  C   UNL     1      31.898  11.085  -4.224  1.00  0.00     0.022 A
ATOM      6  C   UNL     1      31.277   9.823  -4.180  1.00  0.00     0.036 A
ENDROOT
BRANCH   5   7
ATOM      7  C   UNL     1      31.353  12.102  -5.189  1.00  0.00     0.200 C
BRANCH   7   8
ATOM      8  O   UNL     1      29.980  12.287  -4.864  1.00  0.00    -0.373 OA
BRANCH   8   9
ATOM      9  C   UNL     1      29.352  13.307  -5.625  1.00  0.00     0.188 C
BRANCH   9  10
ATOM     10  C   UNL     1      28.011  13.576  -5.011  1.00  0.00     0.003 C
ATOM     11  C   UNL     1      27.136  14.554  -5.340  1.00  0.00    -0.036 C
ATOM     12  G   UNL     1      25.764  14.682  -4.703  1.00  0.00     0.000 C
BRANCH  11  13
ATOM     13  C   UNL     1      27.405  15.571  -6.429  1.00  0.00     0.102 C
BRANCH  13  14
ATOM     14  S   UNL     1      26.760  17.199  -5.933  1.00  0.00    -0.156 SA
BRANCH  14  15
ATOM     15  C   UNL     1      28.212  17.867  -5.032  1.00  0.00     0.089 C
ATOM     16  G   UNL     1      29.095  18.882  -5.800  1.00  0.00     0.000 C
ENDBRANCH  14  15
ENDBRANCH  13  14
ENDBRANCH  11  13
ENDBRANCH   9  10
ENDBRANCH   8   9
ENDBRANCH   7   8
ENDBRANCH   5   7
BRANCH   4  17
ATOM     17  O   UNL     1      33.831  12.403  -3.523  1.00  0.00    -0.492 OA
BRANCH  17  18
ATOM     18  C   UNL     1      33.559  13.286  -2.417  1.00  0.00     0.245 C
BRANCH  18  19
ATOM     19  C   UNL     1      33.434  14.740  -2.897  1.00  0.00     0.126 C
BRANCH  19  20
ATOM     20  N   UNL     1      32.326  14.903  -3.863  1.00  0.00    -0.296 NA
ATOM     21  C   UNL     1      31.055  15.173  -3.174  1.00  0.00     0.085 C
ATOM     22  C   UNL     1      32.522  16.043  -4.789  1.00  0.00     0.066 C
ATOM     23  C   UNL     1      30.938  16.685  -3.056  1.00  0.00     0.017 C
ATOM     24  C   UNL     1      31.972  17.251  -4.019  1.00  0.00     0.021 C
ATOM     25  G   UNL     1      31.779  15.869  -6.138  1.00  0.00     0.000 C
ENDBRANCH  19  20
ENDBRANCH  18  19
ENDBRANCH  17  18
ENDBRANCH   4  17
BRANCH   1  26
ATOM     26  N   UNL     1      31.282   7.460  -3.503  1.00  0.00    -0.324 N
ATOM     27  H   UNL     1      31.787   6.725  -3.034  1.00  0.00     0.170 HD
BRANCH  26  28
ATOM     28  C   UNL     1      30.325   6.934  -4.371  1.00  0.00     0.227 A
ATOM     29  N   UNL     1      29.959   5.658  -4.175  1.00  0.00    -0.221 NA
ATOM     30  N   UNL     1      29.869   7.665  -5.392  1.00  0.00    -0.212 NA
ATOM     31  C   UNL     1      29.114   5.115  -5.080  1.00  0.00     0.117 A
ATOM     32  C   UNL     1      29.047   7.087  -6.283  1.00  0.00     0.086 A
ATOM     33  C   UNL     1      28.625   5.786  -6.175  1.00  0.00     0.050 A
BRANCH  32  34
ATOM     34  C   UNL     1      28.646   7.992  -7.356  1.00  0.00     0.053 A
ATOM     35  C   UNL     1      28.901   7.868  -8.707  1.00  0.00     0.022 A
ATOM     36  S   UNL     1      27.639   9.337  -7.035  1.00  0.00    -0.136 S
ATOM     37  C   UNL     1      28.237   8.860  -9.479  1.00  0.00     0.018 A
ATOM     38  C   UNL     1      27.453   9.690  -8.703  1.00  0.00     0.031 A
BRANCH  38  39
ATOM     39  C   UNL     1      26.528  10.774  -9.161  1.00  0.00     0.207 C
BRANCH  39  40
ATOM     40  O   UNL     1      26.264  11.652  -8.061  1.00  0.00    -0.372 OA
BRANCH  40  41
ATOM     41  C   UNL     1      25.730  12.924  -8.447  1.00  0.00     0.192 C
ATOM     42  G   UNL     1      26.603  13.639  -9.462  1.00  0.00     0.000 C
ENDBRANCH  40  41
ENDBRANCH  39  40
ENDBRANCH  38  39
ENDBRANCH  32  34
ENDBRANCH  26  28
ENDBRANCH   1  26
TORSDOF 0
ENDMDL
MODEL 3
REMARK VINA RESULT:      -7.3      3.046      6.155
REMARK SMILES C1=C2/COCc3ccc(s3)-c3ccnc(n3)Nc3ccc(c(c3)COC/1)OCCN1CCC[C@@H]1CSC2
REMARK SMILES IDX 18 1 19 2 20 3 21 4 22 5 23 6 24 7 25 8 26 9 1 10 2 11 37 13
REMARK SMILES IDX 36 14 35 15 27 17 28 18 29 19 30 20 31 21 34 22 32 23 33 24
REMARK SMILES IDX 17 26 15 28 14 29 16 30 13 31 11 32 12 33 9 34 8 35 10 36
REMARK SMILES IDX 7 37 6 38 5 39 4 40 3 41
REMARK H PARENT 17 27
REMARK Flexibility Score:   91.800
ROOT
ATOM      1  C   UNL     1      33.283  13.604  -3.354  1.00  0.00     0.042 A
ATOM      2  C   UNL     1      33.766  14.892  -3.106  1.00  0.00     0.030 A
ATOM      3  C   UNL     1      33.159  16.010  -3.691  1.00  0.00     0.049 A
ATOM      4  C   UNL     1      32.064  15.851  -4.544  1.00  0.00     0.125 A
ATOM      5  C   UNL     1      31.485  14.589  -4.720  1.00  0.00     0.022 A
ATOM      6  C   UNL     1      32.118  13.484  -4.123  1.00  0.00     0.036 A
ENDROOT
BRANCH   5   7
ATOM      7  C   UNL     1      30.289  14.327  -5.594  1.00  0.00     0.200 C
BRANCH   7   8
ATOM      8  O   UNL     1      29.461  13.404  -4.895  1.00  0.00    -0.373 OA
BRANCH   8   9
ATOM      9  C   UNL     1      28.093  13.479  -5.268  1.00  0.00     0.188 C
BRANCH   9  10
ATOM     10  C   UNL     1      27.656  14.905  -5.117  1.00  0.00     0.003 C
ATOM     11  C   UNL     1      27.177  15.726  -6.080  1.00  0.00    -0.036 C
ATOM     12  G   UNL     1      26.685  17.133  -5.796  1.00  0.00     0.000 C
BRANCH  11  13
ATOM     13  C   UNL     1      27.012  15.296  -7.523  1.00  0.00     0.102 C
BRANCH  13  14
ATOM     14  S   UNL     1      26.788  16.758  -8.585  1.00  0.00    -0.156 SA
BRANCH  14  15
ATOM     15  C   UNL     1      25.086  16.459  -9.200  1.00  0.00     0.089 C
ATOM     16  G   UNL     1      24.247  17.714  -9.554  1.00  0.00     0.000 C
ENDBRANCH  14  15
ENDBRANCH  13  14
ENDBRANCH  11  13
ENDBRANCH   9  10
ENDBRANCH   8   9
ENDBRANCH   7   8
ENDBRANCH   5   7
BRANCH   4  17
ATOM     17  O   UNL     1      31.643  16.978  -5.209  1.00  0.00    -0.492 OA
BRANCH  17  18
ATOM     18  C   UNL     1      31.602  18.101  -4.308  1.00  0.00     0.245 C
BRANCH  18  19
ATOM     19  C   UNL     1      30.941  19.315  -4.978  1.00  0.00     0.126 C
BRANCH  19  20
ATOM     20  N   UNL     1      31.823  19.925  -5.995  1.00  0.00    -0.296 NA
ATOM     21  C   UNL     1      31.446  21.321  -6.259  1.00  0.00     0.085 C
ATOM     22  C   UNL     1      33.245  19.973  -5.580  1.00  0.00     0.066 C
ATOM     23  C   UNL     1      32.256  22.180  -5.298  1.00  0.00     0.017 C
ATOM     24  C   UNL     1      33.355  21.270  -4.767  1.00  0.00     0.021 C
ATOM     25  G   UNL     1      34.231  19.991  -6.776  1.00  0.00     0.000 C
ENDBRANCH  19  20
ENDBRANCH  18  19
ENDBRANCH  17  18
ENDBRANCH   4  17
BRANCH   1  26
ATOM     26  N   UNL     1      34.043  12.493  -2.958  1.00  0.00    -0.324 N
ATOM     27  H   UNL     1      35.046  12.583  -2.929  1.00  0.00     0.170 HD
BRANCH  26  28
ATOM     28  C   UNL     1      33.656  11.163  -2.791  1.00  0.00     0.227 A
ATOM     29  N   UNL     1      34.454  10.384  -2.045  1.00  0.00    -0.221 NA
ATOM     30  N   UNL     1      32.575  10.693  -3.422  1.00  0.00    -0.212 NA
ATOM     31  C   UNL     1      34.138   9.072  -1.972  1.00  0.00     0.117 A
ATOM     32  C   UNL     1      32.304   9.379  -3.344  1.00  0.00     0.086 A
ATOM     33  C   UNL     1      33.066   8.502  -2.617  1.00  0.00     0.050 A
BRANCH  32  34
ATOM     34  C   UNL     1      31.112   9.002  -4.098  1.00  0.00     0.053 A
ATOM     35  C   UNL     1      30.217   9.836  -4.739  1.00  0.00     0.022 A
ATOM     36  S   UNL     1      30.746   7.356  -4.390  1.00  0.00    -0.136 S
ATOM     37  C   UNL     1      29.253   9.117  -5.497  1.00  0.00     0.018 A
ATOM     38  C   UNL     1      29.463   7.753  -5.455  1.00  0.00     0.031 A
BRANCH  38  39
ATOM     39  C   UNL     1      28.729   6.686  -6.206  1.00  0.00     0.207 C
BRANCH  39  40
ATOM     40  O   UNL     1      27.326   6.827  -5.959  1.00  0.00    -0.372 OA
BRANCH  40  41
ATOM     41  C   UNL     1      26.648   5.587  -5.730  1.00  0.00     0.192 C
ATOM     42  G   UNL     1      27.135   4.877  -4.480  1.00  0.00     0.000 C
ENDBRANCH  40  41
ENDBRANCH  39  40
ENDBRANCH  38  39
ENDBRANCH  32  34
ENDBRANCH  26  28
ENDBRANCH   1  26
TORSDOF 0
ENDMDL
MODEL 4
REMARK VINA RESULT:      -7.3      2.870      5.926
REMARK SMILES C1=C2/COCc3ccc(s3)-c3ccnc(n3)Nc3ccc(c(c3)COC/1)OCCN1CCC[C@@H]1CSC2
REMARK SMILES IDX 18 1 19 2 20 3 21 4 22 5 23 6 24 7 25 8 26 9 1 10 2 11 37 13
REMARK SMILES IDX 36 14 35 15 27 17 28 18 29 19 30 20 31 21 34 22 32 23 33 24
REMARK SMILES IDX 17 26 15 28 14 29 16 30 13 31 11 32 12 33 9 34 8 35 10 36
REMARK SMILES IDX 7 37 6 38 5 39 4 40 3 41
REMARK H PARENT 17 27
REMARK Flexibility Score:   91.800
ROOT
ATOM      1  C   UNL     1      33.753  13.488  -2.828  1.00  0.00     0.042 A
ATOM      2  C   UNL     1      34.483  14.637  -3.149  1.00  0.00     0.030 A
ATOM      3  C   UNL     1      33.831  15.828  -3.493  1.00  0.00     0.049 A
ATOM      4  C   UNL     1      32.436  15.879  -3.533  1.00  0.00     0.125 A
ATOM      5  C   UNL     1      31.677  14.784  -3.107  1.00  0.00     0.022 A
ATOM      6  C   UNL     1      32.358  13.600  -2.769  1.00  0.00     0.036 A
ENDROOT
BRANCH   5   7
ATOM      7  C   UNL     1      30.172  14.759  -3.087  1.00  0.00     0.200 C
BRANCH   7   8
ATOM      8  O   UNL     1      29.747  14.467  -4.413  1.00  0.00    -0.373 OA
BRANCH   8   9
ATOM      9  C   UNL     1      28.753  13.455  -4.478  1.00  0.00     0.188 C
BRANCH   9  10
ATOM     10  C   UNL     1      28.372  13.280  -5.917  1.00  0.00     0.003 C
ATOM     11  C   UNL     1      27.627  14.112  -6.679  1.00  0.00    -0.036 C
ATOM     12  G   UNL     1      27.371  13.872  -8.156  1.00  0.00     0.000 C
BRANCH  11  13
ATOM     13  C   UNL     1      27.037  15.405  -6.155  1.00  0.00     0.102 C
BRANCH  13  14
ATOM     14  S   UNL     1      27.909  16.827  -6.885  1.00  0.00    -0.156 SA
BRANCH  14  15
ATOM     15  C   UNL     1      26.480  17.842  -7.428  1.00  0.00     0.089 C
ATOM     16  G   UNL     1      26.522  18.373  -8.884  1.00  0.00     0.000 C
ENDBRANCH  14  15
ENDBRANCH  13  14
ENDBRANCH  11  13
ENDBRANCH   9  10
ENDBRANCH   8   9
ENDBRANCH   7   8
ENDBRANCH   5   7
BRANCH   4  17
ATOM     17  O   UNL     1      31.885  17.028  -4.048  1.00  0.00    -0.492 OA
BRANCH  17  18
ATOM     18  C   UNL     1      32.634  17.467  -5.198  1.00  0.00     0.245 C
BRANCH  18  19
ATOM     19  C   UNL     1      32.648  19.000  -5.288  1.00  0.00     0.126 C
BRANCH  19  20
ATOM     20  N   UNL     1      31.299  19.571  -5.095  1.00  0.00    -0.296 NA
ATOM     21  C   UNL     1      31.279  20.528  -3.980  1.00  0.00     0.085 C
ATOM     22  C   UNL     1      30.811  20.328  -6.272  1.00  0.00     0.066 C
ATOM     23  C   UNL     1      31.578  21.896  -4.575  1.00  0.00     0.017 C
ATOM     24  C   UNL     1      31.388  21.737  -6.077  1.00  0.00     0.021 C
ATOM     25  G   UNL     1      29.265  20.379  -6.369  1.00  0.00     0.000 C
ENDBRANCH  19  20
ENDBRANCH  18  19
ENDBRANCH  17  18
ENDBRANCH   4  17
BRANCH   1  26
ATOM     26  N   UNL     1      34.416  12.256  -2.723  1.00  0.00    -0.324 N
ATOM     27  H   UNL     1      35.402  12.223  -2.923  1.00  0.00     0.170 HD
BRANCH  26  28
ATOM     28  C   UNL     1      33.890  10.971  -2.589  1.00  0.00     0.227 A
ATOM     29  N   UNL     1      34.574  10.108  -1.822  1.00  0.00    -0.221 NA
ATOM     30  N   UNL     1      32.794  10.618  -3.268  1.00  0.00    -0.212 NA
ATOM     31  C   UNL     1      34.124   8.834  -1.778  1.00  0.00     0.117 A
ATOM     32  C   UNL     1      32.388   9.338  -3.218  1.00  0.00     0.086 A
ATOM     33  C   UNL     1      33.028   8.381  -2.472  1.00  0.00     0.050 A
BRANCH  32  34
ATOM     34  C   UNL     1      31.197   9.090  -4.024  1.00  0.00     0.053 A
ATOM     35  C   UNL     1      30.400  10.019  -4.664  1.00  0.00     0.022 A
ATOM     36  S   UNL     1      30.701   7.492  -4.384  1.00  0.00    -0.136 S
ATOM     37  C   UNL     1      29.406   9.411  -5.478  1.00  0.00     0.018 A
ATOM     38  C   UNL     1      29.496   8.034  -5.477  1.00  0.00     0.031 A
BRANCH  38  39
ATOM     39  C   UNL     1      28.701   7.059  -6.289  1.00  0.00     0.207 C
BRANCH  39  40
ATOM     40  O   UNL     1      28.333   5.954  -5.455  1.00  0.00    -0.372 OA
BRANCH  40  41
ATOM     41  C   UNL     1      26.931   5.881  -5.172  1.00  0.00     0.192 C
ATOM     42  G   UNL     1      26.569   4.674  -4.327  1.00  0.00     0.000 C
ENDBRANCH  40  41
ENDBRANCH  39  40
ENDBRANCH  38  39
ENDBRANCH  32  34
ENDBRANCH  26  28
ENDBRANCH   1  26
TORSDOF 0
ENDMDL
MODEL 5
REMARK VINA RESULT:      -7.3      2.850      6.167
REMARK SMILES C1=C2/COCc3ccc(s3)-c3ccnc(n3)Nc3ccc(c(c3)COC/1)OCCN1CCC[C@@H]1CSC2
REMARK SMILES IDX 18 1 19 2 20 3 21 4 22 5 23 6 24 7 25 8 26 9 1 10 2 11 37 13
REMARK SMILES IDX 36 14 35 15 27 17 28 18 29 19 30 20 31 21 34 22 32 23 33 24
REMARK SMILES IDX 17 26 15 28 14 29 16 30 13 31 11 32 12 33 9 34 8 35 10 36
REMARK SMILES IDX 7 37 6 38 5 39 4 40 3 41
REMARK H PARENT 17 27
REMARK Flexibility Score:   91.800
ROOT
ATOM      1  C   UNL     1      32.809  13.132  -3.499  1.00  0.00     0.042 A
ATOM      2  C   UNL     1      33.737  14.117  -3.148  1.00  0.00     0.030 A
ATOM      3  C   UNL     1      33.396  15.474  -3.198  1.00  0.00     0.049 A
ATOM      4  C   UNL     1      32.122  15.864  -3.614  1.00  0.00     0.125 A
ATOM      5  C   UNL     1      31.135  14.903  -3.860  1.00  0.00     0.022 A
ATOM      6  C   UNL     1      31.506  13.547  -3.805  1.00  0.00     0.036 A
ENDROOT
BRANCH   5   7
ATOM      7  C   UNL     1      29.728  15.230  -4.283  1.00  0.00     0.200 C
BRANCH   7   8
ATOM      8  O   UNL     1      29.037  13.993  -4.410  1.00  0.00    -0.373 OA
BRANCH   8   9
ATOM      9  C   UNL     1      27.786  14.110  -5.071  1.00  0.00     0.188 C
BRANCH   9  10
ATOM     10  C   UNL     1      27.498  15.571  -5.249  1.00  0.00     0.003 C
ATOM     11  C   UNL     1      26.846  16.163  -6.275  1.00  0.00    -0.036 C
ATOM     12  G   UNL     1      26.539  17.649  -6.310  1.00  0.00     0.000 C
BRANCH  11  13
ATOM     13  C   UNL     1      26.289  15.391  -7.453  1.00  0.00     0.102 C
BRANCH  13  14
ATOM     14  S   UNL     1      27.531  15.305  -8.782  1.00  0.00    -0.156 SA
BRANCH  14  15
ATOM     15  C   UNL     1      27.312  13.565  -9.322  1.00  0.00     0.089 C
ATOM     16  G   UNL     1      26.628  12.608  -8.313  1.00  0.00     0.000 C
ENDBRANCH  14  15
ENDBRANCH  13  14
ENDBRANCH  11  13
ENDBRANCH   9  10
ENDBRANCH   8   9
ENDBRANCH   7   8
ENDBRANCH   5   7
BRANCH   4  17
ATOM     17  O   UNL     1      31.930  17.212  -3.802  1.00  0.00    -0.492 OA
BRANCH  17  18
ATOM     18  C   UNL     1      32.486  17.622  -5.066  1.00  0.00     0.245 C
BRANCH  18  19
ATOM     19  C   UNL     1      31.435  18.359  -5.911  1.00  0.00     0.126 C
BRANCH  19  20
ATOM     20  N   UNL     1      31.904  19.701  -6.317  1.00  0.00    -0.296 NA
ATOM     21  C   UNL     1      30.781  20.640  -6.448  1.00  0.00     0.085 C
ATOM     22  C   UNL     1      32.822  20.320  -5.332  1.00  0.00     0.066 C
ATOM     23  C   UNL     1      30.610  21.306  -5.090  1.00  0.00     0.017 C
ATOM     24  C   UNL     1      31.888  20.999  -4.322  1.00  0.00     0.021 C
ATOM     25  G   UNL     1      33.789  21.354  -5.965  1.00  0.00     0.000 C
ENDBRANCH  19  20
ENDBRANCH  18  19
ENDBRANCH  17  18
ENDBRANCH   4  17
BRANCH   1  26
ATOM     26  N   UNL     1      33.238  11.808  -3.672  1.00  0.00    -0.324 N
ATOM     27  H   UNL     1      34.133  11.646  -4.106  1.00  0.00     0.170 HD
BRANCH  26  28
ATOM     28  C   UNL     1      32.526  10.616  -3.537  1.00  0.00     0.227 A
ATOM     29  N   UNL     1      33.046   9.683  -2.725  1.00  0.00    -0.221 NA
ATOM     30  N   UNL     1      31.419  10.409  -4.257  1.00  0.00    -0.212 NA
ATOM     31  C   UNL     1      32.414   8.489  -2.677  1.00  0.00     0.117 A
ATOM     32  C   UNL     1      30.830   9.202  -4.201  1.00  0.00     0.086 A
ATOM     33  C   UNL     1      31.292   8.182  -3.410  1.00  0.00     0.050 A
BRANCH  32  34
ATOM     34  C   UNL     1      29.648   9.109  -5.053  1.00  0.00     0.053 A
ATOM     35  C   UNL     1      28.730  10.100  -5.337  1.00  0.00     0.022 A
ATOM     36  S   UNL     1      29.327   7.688  -5.951  1.00  0.00    -0.136 S
ATOM     37  C   UNL     1      27.785   9.699  -6.320  1.00  0.00     0.018 A
ATOM     38  C   UNL     1      28.032   8.428  -6.797  1.00  0.00     0.031 A
BRANCH  38  39
ATOM     39  C   UNL     1      27.327   7.707  -7.904  1.00  0.00     0.207 C
BRANCH  39  40
ATOM     40  O   UNL     1      27.076   8.630  -8.971  1.00  0.00    -0.372 OA
BRANCH  40  41
ATOM     41  C   UNL     1      28.104   8.661  -9.966  1.00  0.00     0.192 C
ATOM     42  G   UNL     1      28.131   9.969 -10.737  1.00  0.00     0.000 C
ENDBRANCH  40  41
ENDBRANCH  39  40
ENDBRANCH  38  39
ENDBRANCH  32  34
ENDBRANCH  26  28
ENDBRANCH   1  26
TORSDOF 0
ENDMDL
MODEL 6
REMARK VINA RESULT:      -7.2      2.679      5.553
REMARK SMILES C1=C2/COCc3ccc(s3)-c3ccnc(n3)Nc3ccc(c(c3)COC/1)OCCN1CCC[C@@H]1CSC2
REMARK SMILES IDX 18 1 19 2 20 3 21 4 22 5 23 6 24 7 25 8 26 9 1 10 2 11 37 13
REMARK SMILES IDX 36 14 35 15 27 17 28 18 29 19 30 20 31 21 34 22 32 23 33 24
REMARK SMILES IDX 17 26 15 28 14 29 16 30 13 31 11 32 12 33 9 34 8 35 10 36
REMARK SMILES IDX 7 37 6 38 5 39 4 40 3 41
REMARK H PARENT 17 27
REMARK Flexibility Score:   91.800
ROOT
ATOM      1  C   UNL     1      32.487  15.584  -3.840  1.00  0.00     0.042 A
ATOM      2  C   UNL     1      32.943  15.622  -5.161  1.00  0.00     0.030 A
ATOM      3  C   UNL     1      32.074  15.950  -6.209  1.00  0.00     0.049 A
ATOM      4  C   UNL     1      30.732  16.233  -5.948  1.00  0.00     0.125 A
ATOM      5  C   UNL     1      30.272  16.317  -4.629  1.00  0.00     0.022 A
ATOM      6  C   UNL     1      31.166  15.979  -3.597  1.00  0.00     0.036 A
ENDROOT
BRANCH   5   7
ATOM      7  C   UNL     1      28.853  16.643  -4.252  1.00  0.00     0.200 C
BRANCH   7   8
ATOM      8  O   UNL     1      28.672  18.035  -4.488  1.00  0.00    -0.373 OA
BRANCH   8   9
ATOM      9  C   UNL     1      27.954  18.317  -5.679  1.00  0.00     0.188 C
BRANCH   9  10
ATOM     10  C   UNL     1      28.171  19.763  -6.013  1.00  0.00     0.003 C
ATOM     11  C   UNL     1      29.339  20.369  -6.325  1.00  0.00    -0.036 C
ATOM     12  G   UNL     1      29.428  21.830  -6.728  1.00  0.00     0.000 C
BRANCH  11  13
ATOM     13  C   UNL     1      30.662  19.635  -6.378  1.00  0.00     0.102 C
BRANCH  13  14
ATOM     14  S   UNL     1      31.596  19.926  -4.842  1.00  0.00    -0.156 SA
BRANCH  14  15
ATOM     15  C   UNL     1      33.097  20.734  -5.520  1.00  0.00     0.089 C
ATOM     16  G   UNL     1      33.014  22.264  -5.753  1.00  0.00     0.000 C
ENDBRANCH  14  15
ENDBRANCH  13  14
ENDBRANCH  11  13
ENDBRANCH   9  10
ENDBRANCH   8   9
ENDBRANCH   7   8
ENDBRANCH   5   7
BRANCH   4  17
ATOM     17  O   UNL     1      29.916  16.371  -7.045  1.00  0.00    -0.492 OA
BRANCH  17  18
ATOM     18  C   UNL     1      29.008  15.255  -7.134  1.00  0.00     0.245 C
BRANCH  18  19
ATOM     19  C   UNL     1      27.923  15.517  -8.189  1.00  0.00     0.126 C
BRANCH  19  20
ATOM     20  N   UNL     1      27.209  14.276  -8.557  1.00  0.00    -0.296 NA
ATOM     21  C   UNL     1      25.776  14.372  -8.242  1.00  0.00     0.085 C
ATOM     22  C   UNL     1      27.274  13.973 -10.007  1.00  0.00     0.066 C
ATOM     23  C   UNL     1      25.093  14.922  -9.486  1.00  0.00     0.017 C
ATOM     24  C   UNL     1      26.110  14.771 -10.609  1.00  0.00     0.021 C
ATOM     25  G   UNL     1      27.124  12.463 -10.323  1.00  0.00     0.000 C
ENDBRANCH  19  20
ENDBRANCH  18  19
ENDBRANCH  17  18
ENDBRANCH   4  17
BRANCH   1  26
ATOM     26  N   UNL     1      33.303  15.025  -2.844  1.00  0.00    -0.324 N
ATOM     27  H   UNL     1      33.815  15.646  -2.238  1.00  0.00     0.170 HD
BRANCH  26  28
ATOM     28  C   UNL     1      33.714  13.703  -2.668  1.00  0.00     0.227 A
ATOM     29  N   UNL     1      34.943  13.508  -2.165  1.00  0.00    -0.221 NA
ATOM     30  N   UNL     1      32.929  12.696  -3.064  1.00  0.00    -0.212 NA
ATOM     31  C   UNL     1      35.383  12.232  -2.096  1.00  0.00     0.117 A
ATOM     32  C   UNL     1      33.407  11.442  -2.999  1.00  0.00     0.086 A
ATOM     33  C   UNL     1      34.654  11.143  -2.512  1.00  0.00     0.050 A
BRANCH  32  34
ATOM     34  C   UNL     1      32.456  10.448  -3.484  1.00  0.00     0.053 A
ATOM     35  C   UNL     1      32.362   9.119  -3.121  1.00  0.00     0.022 A
ATOM     36  S   UNL     1      31.186  10.894  -4.541  1.00  0.00    -0.136 S
ATOM     37  C   UNL     1      31.225   8.480  -3.686  1.00  0.00     0.018 A
ATOM     38  C   UNL     1      30.451   9.348  -4.429  1.00  0.00     0.031 A
BRANCH  38  39
ATOM     39  C   UNL     1      29.132   9.076  -5.082  1.00  0.00     0.207 C
BRANCH  39  40
ATOM     40  O   UNL     1      28.205  10.098  -4.699  1.00  0.00    -0.372 OA
BRANCH  40  41
ATOM     41  C   UNL     1      27.627  10.803  -5.803  1.00  0.00     0.192 C
ATOM     42  G   UNL     1      27.503  12.294  -5.543  1.00  0.00     0.000 C
ENDBRANCH  40  41
ENDBRANCH  39  40
ENDBRANCH  38  39
ENDBRANCH  32  34
ENDBRANCH  26  28
ENDBRANCH   1  26
TORSDOF 0
ENDMDL
MODEL 7
REMARK VINA RESULT:      -7.2      2.894      6.117
REMARK SMILES C1=C2/COCc3ccc(s3)-c3ccnc(n3)Nc3ccc(c(c3)COC/1)OCCN1CCC[C@@H]1CSC2
REMARK SMILES IDX 18 1 19 2 20 3 21 4 22 5 23 6 24 7 25 8 26 9 1 10 2 11 37 13
REMARK SMILES IDX 36 14 35 15 27 17 28 18 29 19 30 20 31 21 34 22 32 23 33 24
REMARK SMILES IDX 17 26 15 28 14 29 16 30 13 31 11 32 12 33 9 34 8 35 10 36
REMARK SMILES IDX 7 37 6 38 5 39 4 40 3 41
REMARK H PARENT 17 27
REMARK Flexibility Score:   91.800
ROOT
ATOM      1  C   UNL     1      30.247  12.831  -5.031  1.00  0.00     0.042 A
ATOM      2  C   UNL     1      28.970  12.876  -4.465  1.00  0.00     0.030 A
ATOM      3  C   UNL     1      28.226  14.063  -4.469  1.00  0.00     0.049 A
ATOM      4  C   UNL     1      28.757  15.225  -5.032  1.00  0.00     0.125 A
ATOM      5  C   UNL     1      29.981  15.184  -5.708  1.00  0.00     0.022 A
ATOM      6  C   UNL     1      30.709  13.981  -5.685  1.00  0.00     0.036 A
ENDROOT
BRANCH   5   7
ATOM      7  C   UNL     1      30.617  16.377  -6.369  1.00  0.00     0.200 C
BRANCH   7   8
ATOM      8  O   UNL     1      31.933  16.491  -5.838  1.00  0.00    -0.373 OA
BRANCH   8   9
ATOM      9  C   UNL     1      32.032  17.420  -4.770  1.00  0.00     0.188 C
BRANCH   9  10
ATOM     10  C   UNL     1      31.455  16.774  -3.547  1.00  0.00     0.003 C
ATOM     11  C   UNL     1      32.014  15.806  -2.785  1.00  0.00    -0.036 C
ATOM     12  G   UNL     1      31.371  15.280  -1.515  1.00  0.00     0.000 C
BRANCH  11  13
ATOM     13  C   UNL     1      33.372  15.204  -3.082  1.00  0.00     0.102 C
BRANCH  13  14
ATOM     14  S   UNL     1      33.362  13.426  -2.690  1.00  0.00    -0.156 SA
BRANCH  14  15
ATOM     15  C   UNL     1      35.147  13.152  -2.367  1.00  0.00     0.089 C
ATOM     16  G   UNL     1      35.551  11.743  -1.864  1.00  0.00     0.000 C
ENDBRANCH  14  15
ENDBRANCH  13  14
ENDBRANCH  11  13
ENDBRANCH   9  10
ENDBRANCH   8   9
ENDBRANCH   7   8
ENDBRANCH   5   7
BRANCH   4  17
ATOM     17  O   UNL     1      28.037  16.378  -4.837  1.00  0.00    -0.492 OA
BRANCH  17  18
ATOM     18  C   UNL     1      26.724  16.249  -5.416  1.00  0.00     0.245 C
BRANCH  18  19
ATOM     19  C   UNL     1      26.722  16.725  -6.877  1.00  0.00     0.126 C
BRANCH  19  20
ATOM     20  N   UNL     1      25.898  15.848  -7.736  1.00  0.00    -0.296 NA
ATOM     21  C   UNL     1      26.329  15.920  -9.140  1.00  0.00     0.085 C
ATOM     22  C   UNL     1      25.993  14.415  -7.368  1.00  0.00     0.066 C
ATOM     23  C   UNL     1      27.372  14.828  -9.331  1.00  0.00     0.017 C
ATOM     24  C   UNL     1      27.233  13.916  -8.120  1.00  0.00     0.021 C
ATOM     25  G   UNL     1      24.741  13.597  -7.772  1.00  0.00     0.000 C
ENDBRANCH  19  20
ENDBRANCH  18  19
ENDBRANCH  17  18
ENDBRANCH   4  17
BRANCH   1  26
ATOM     26  N   UNL     1      31.064  11.713  -4.805  1.00  0.00    -0.324 N
ATOM     27  H   UNL     1      32.063  11.832  -4.850  1.00  0.00     0.170 HD
BRANCH  26  28
ATOM     28  C   UNL     1      30.724  10.362  -4.734  1.00  0.00     0.227 A
ATOM     29  N   UNL     1      31.495   9.578  -3.964  1.00  0.00    -0.221 NA
ATOM     30  N   UNL     1      29.719   9.881  -5.471  1.00  0.00    -0.212 NA
ATOM     31  C   UNL     1      31.233   8.252  -3.979  1.00  0.00     0.117 A
ATOM     32  C   UNL     1      29.501   8.555  -5.478  1.00  0.00     0.086 A
ATOM     33  C   UNL     1      30.241   7.673  -4.734  1.00  0.00     0.050 A
BRANCH  32  34
ATOM     34  C   UNL     1      28.390   8.169  -6.343  1.00  0.00     0.053 A
ATOM     35  C   UNL     1      27.875   6.903  -6.544  1.00  0.00     0.022 A
ATOM     36  S   UNL     1      27.466   9.353  -7.163  1.00  0.00    -0.136 S
ATOM     37  C   UNL     1      26.700   6.916  -7.343  1.00  0.00     0.018 A
ATOM     38  C   UNL     1      26.319   8.195  -7.695  1.00  0.00     0.031 A
BRANCH  38  39
ATOM     39  C   UNL     1      25.087   8.617  -8.434  1.00  0.00     0.207 C
BRANCH  39  40
ATOM     40  O   UNL     1      25.210  10.000  -8.786  1.00  0.00    -0.372 OA
BRANCH  40  41
ATOM     41  C   UNL     1      25.204  10.243 -10.197  1.00  0.00     0.192 C
ATOM     42  G   UNL     1      26.084  11.415 -10.591  1.00  0.00     0.000 C
ENDBRANCH  40  41
ENDBRANCH  39  40
ENDBRANCH  38  39
ENDBRANCH  32  34
ENDBRANCH  26  28
ENDBRANCH   1  26
TORSDOF 0
ENDMDL
MODEL 8
REMARK VINA RESULT:      -7.1      3.087      6.124
REMARK SMILES C1=C2/COCc3ccc(s3)-c3ccnc(n3)Nc3ccc(c(c3)COC/1)OCCN1CCC[C@@H]1CSC2
REMARK SMILES IDX 18 1 19 2 20 3 21 4 22 5 23 6 24 7 25 8 26 9 1 10 2 11 37 13
REMARK SMILES IDX 36 14 35 15 27 17 28 18 29 19 30 20 31 21 34 22 32 23 33 24
REMARK SMILES IDX 17 26 15 28 14 29 16 30 13 31 11 32 12 33 9 34 8 35 10 36
REMARK SMILES IDX 7 37 6 38 5 39 4 40 3 41
REMARK H PARENT 17 27
REMARK Flexibility Score:   91.800
ROOT
ATOM      1  C   UNL     1      33.323  13.845  -3.242  1.00  0.00     0.042 A
ATOM      2  C   UNL     1      34.055  15.019  -3.444  1.00  0.00     0.030 A
ATOM      3  C   UNL     1      33.419  16.200  -3.846  1.00  0.00     0.049 A
ATOM      4  C   UNL     1      32.040  16.218  -4.062  1.00  0.00     0.125 A
ATOM      5  C   UNL     1      31.264  15.094  -3.757  1.00  0.00     0.022 A
ATOM      6  C   UNL     1      31.930  13.921  -3.359  1.00  0.00     0.036 A
ENDROOT
BRANCH   5   7
ATOM      7  C   UNL     1      29.770  15.031  -3.930  1.00  0.00     0.200 C
BRANCH   7   8
ATOM      8  O   UNL     1      29.504  13.964  -4.834  1.00  0.00    -0.373 OA
BRANCH   8   9
ATOM      9  C   UNL     1      29.789  14.286  -6.187  1.00  0.00     0.188 C
BRANCH   9  10
ATOM     10  C   UNL     1      29.019  15.525  -6.533  1.00  0.00     0.003 C
ATOM     11  C   UNL     1      27.935  15.624  -7.336  1.00  0.00    -0.036 C
ATOM     12  G   UNL     1      27.184  16.925  -7.551  1.00  0.00     0.000 C
BRANCH  11  13
ATOM     13  C   UNL     1      27.317  14.433  -8.038  1.00  0.00     0.102 C
BRANCH  13  14
ATOM     14  S   UNL     1      25.636  14.140  -7.402  1.00  0.00    -0.156 SA
BRANCH  14  15
ATOM     15  C   UNL     1      26.020  13.649  -5.677  1.00  0.00     0.089 C
ATOM     16  G   UNL     1      25.913  14.759  -4.601  1.00  0.00     0.000 C
ENDBRANCH  14  15
ENDBRANCH  13  14
ENDBRANCH  11  13
ENDBRANCH   9  10
ENDBRANCH   8   9
ENDBRANCH   7   8
ENDBRANCH   5   7
BRANCH   4  17
ATOM     17  O   UNL     1      31.527  17.364  -4.621  1.00  0.00    -0.492 OA
BRANCH  17  18
ATOM     18  C   UNL     1      31.895  17.448  -6.011  1.00  0.00     0.245 C
BRANCH  18  19
ATOM     19  C   UNL     1      32.794  18.667  -6.266  1.00  0.00     0.126 C
BRANCH  19  20
ATOM     20  N   UNL     1      32.691  19.658  -5.174  1.00  0.00    -0.296 NA
ATOM     21  C   UNL     1      33.761  20.663  -5.263  1.00  0.00     0.085 C
ATOM     22  C   UNL     1      31.425  20.428  -5.202  1.00  0.00     0.066 C
ATOM     23  C   UNL     1      33.216  21.804  -6.110  1.00  0.00     0.017 C
ATOM     24  C   UNL     1      31.711  21.585  -6.168  1.00  0.00     0.021 C
ATOM     25  G   UNL     1      31.006  20.967  -3.811  1.00  0.00     0.000 C
ENDBRANCH  19  20
ENDBRANCH  18  19
ENDBRANCH  17  18
ENDBRANCH   4  17
BRANCH   1  26
ATOM     26  N   UNL     1      34.002  12.628  -3.077  1.00  0.00    -0.324 N
ATOM     27  H   UNL     1      34.989  12.598  -3.273  1.00  0.00     0.170 HD
BRANCH  26  28
ATOM     28  C   UNL     1      33.492  11.344  -2.884  1.00  0.00     0.227 A
ATOM     29  N   UNL     1      34.141  10.554  -2.015  1.00  0.00    -0.221 NA
ATOM     30  N   UNL     1      32.449  10.919  -3.605  1.00  0.00    -0.212 NA
ATOM     31  C   UNL     1      33.713   9.276  -1.908  1.00  0.00     0.117 A
ATOM     32  C   UNL     1      32.065   9.637  -3.488  1.00  0.00     0.086 A
ATOM     33  C   UNL     1      32.672   8.750  -2.636  1.00  0.00     0.050 A
BRANCH  32  34
ATOM     34  C   UNL     1      30.933   9.305  -4.348  1.00  0.00     0.053 A
ATOM     35  C   UNL     1      30.533   8.053  -4.774  1.00  0.00     0.022 A
ATOM     36  S   UNL     1      29.831  10.514  -4.850  1.00  0.00    -0.136 S
ATOM     37  C   UNL     1      29.302   8.090  -5.483  1.00  0.00     0.018 A
ATOM     38  C   UNL     1      28.767   9.361  -5.542  1.00  0.00     0.031 A
BRANCH  38  39
ATOM     39  C   UNL     1      27.444   9.777  -6.105  1.00  0.00     0.207 C
BRANCH  39  40
ATOM     40  O   UNL     1      27.492   9.668  -7.532  1.00  0.00    -0.372 OA
BRANCH  40  41
ATOM     41  C   UNL     1      26.292   9.150  -8.116  1.00  0.00     0.192 C
ATOM     42  G   UNL     1      26.506   7.814  -8.803  1.00  0.00     0.000 C
ENDBRANCH  40  41
ENDBRANCH  39  40
ENDBRANCH  38  39
ENDBRANCH  32  34
ENDBRANCH  26  28
ENDBRANCH   1  26
TORSDOF 0
ENDMDL
MODEL 9
REMARK VINA RESULT:      -7.1      3.069      8.553
REMARK SMILES C1=C2/COCc3ccc(s3)-c3ccnc(n3)Nc3ccc(c(c3)COC/1)OCCN1CCC[C@@H]1CSC2
REMARK SMILES IDX 18 1 19 2 20 3 21 4 22 5 23 6 24 7 25 8 26 9 1 10 2 11 37 13
REMARK SMILES IDX 36 14 35 15 27 17 28 18 29 19 30 20 31 21 34 22 32 23 33 24
REMARK SMILES IDX 17 26 15 28 14 29 16 30 13 31 11 32 12 33 9 34 8 35 10 36
REMARK SMILES IDX 7 37 6 38 5 39 4 40 3 41
REMARK H PARENT 17 27
REMARK Flexibility Score:   91.800
ROOT
ATOM      1  C   UNL     1      31.123   8.540  -3.936  1.00  0.00     0.042 A
ATOM      2  C   UNL     1      30.653   7.432  -4.648  1.00  0.00     0.030 A
ATOM      3  C   UNL     1      29.494   7.521  -5.429  1.00  0.00     0.049 A
ATOM      4  C   UNL     1      28.782   8.720  -5.497  1.00  0.00     0.125 A
ATOM      5  C   UNL     1      29.287   9.875  -4.892  1.00  0.00     0.022 A
ATOM      6  C   UNL     1      30.451   9.757  -4.111  1.00  0.00     0.036 A
ENDROOT
BRANCH   5   7
ATOM      7  C   UNL     1      28.605  11.216  -4.937  1.00  0.00     0.200 C
BRANCH   7   8
ATOM      8  O   UNL     1      29.613  12.183  -5.210  1.00  0.00    -0.373 OA
BRANCH   8   9
ATOM      9  C   UNL     1      29.097  13.422  -5.674  1.00  0.00     0.188 C
BRANCH   9  10
ATOM     10  C   UNL     1      27.620  13.426  -5.418  1.00  0.00     0.003 C
ATOM     11  C   UNL     1      26.849  14.477  -5.056  1.00  0.00    -0.036 C
ATOM     12  G   UNL     1      25.342  14.381  -4.903  1.00  0.00     0.000 C
BRANCH  11  13
ATOM     13  C   UNL     1      27.402  15.870  -4.843  1.00  0.00     0.102 C
BRANCH  13  14
ATOM     14  S   UNL     1      26.902  16.954  -6.218  1.00  0.00    -0.156 SA
BRANCH  14  15
ATOM     15  C   UNL     1      28.286  18.159  -6.205  1.00  0.00     0.089 C
ATOM     16  G   UNL     1      27.948  19.605  -6.648  1.00  0.00     0.000 C
ENDBRANCH  14  15
ENDBRANCH  13  14
ENDBRANCH  11  13
ENDBRANCH   9  10
ENDBRANCH   8   9
ENDBRANCH   7   8
ENDBRANCH   5   7
BRANCH   4  17
ATOM     17  O   UNL     1      27.569   8.670  -6.141  1.00  0.00    -0.492 OA
BRANCH  17  18
ATOM     18  C   UNL     1      26.526   8.322  -5.210  1.00  0.00     0.245 C
BRANCH  18  19
ATOM     19  C   UNL     1      25.659   7.180  -5.761  1.00  0.00     0.126 C
BRANCH  19  20
ATOM     20  N   UNL     1      26.324   6.484  -6.884  1.00  0.00    -0.296 NA
ATOM     21  C   UNL     1      26.603   5.080  -6.549  1.00  0.00     0.085 C
ATOM     22  C   UNL     1      25.497   6.439  -8.113  1.00  0.00     0.066 C
ATOM     23  C   UNL     1      25.392   4.276  -7.001  1.00  0.00     0.017 C
ATOM     24  C   UNL     1      24.612   5.201  -7.925  1.00  0.00     0.021 C
ATOM     25  G   UNL     1      26.338   6.320  -9.410  1.00  0.00     0.000 C
ENDBRANCH  19  20
ENDBRANCH  18  19
ENDBRANCH  17  18
ENDBRANCH   4  17
BRANCH   1  26
ATOM     26  N   UNL     1      32.135   8.368  -2.979  1.00  0.00    -0.324 N
ATOM     27  H   UNL     1      32.065   7.593  -2.340  1.00  0.00     0.170 HD
BRANCH  26  28
ATOM     28  C   UNL     1      33.159   9.237  -2.601  1.00  0.00     0.227 A
ATOM     29  N   UNL     1      34.180   8.711  -1.907  1.00  0.00    -0.221 NA
ATOM     30  N   UNL     1      33.063  10.544  -2.863  1.00  0.00    -0.212 NA
ATOM     31  C   UNL     1      35.117   9.570  -1.447  1.00  0.00     0.117 A
ATOM     32  C   UNL     1      34.003  11.370  -2.373  1.00  0.00     0.086 A
ATOM     33  C   UNL     1      35.077  10.930  -1.643  1.00  0.00     0.050 A
BRANCH  32  34
ATOM     34  C   UNL     1      33.761  12.768  -2.715  1.00  0.00     0.053 A
ATOM     35  C   UNL     1      34.647  13.825  -2.632  1.00  0.00     0.022 A
ATOM     36  S   UNL     1      32.281  13.253  -3.423  1.00  0.00    -0.136 S
ATOM     37  C   UNL     1      34.116  15.022  -3.184  1.00  0.00     0.018 A
ATOM     38  C   UNL     1      32.856  14.841  -3.718  1.00  0.00     0.031 A
BRANCH  38  39
ATOM     39  C   UNL     1      32.027  15.831  -4.476  1.00  0.00     0.207 C
BRANCH  39  40
ATOM     40  O   UNL     1      32.761  17.054  -4.596  1.00  0.00    -0.372 OA
BRANCH  40  41
ATOM     41  C   UNL     1      33.315  17.275  -5.897  1.00  0.00     0.192 C
ATOM     42  G   UNL     1      32.821  18.563  -6.531  1.00  0.00     0.000 C
ENDBRANCH  40  41
ENDBRANCH  39  40
ENDBRANCH  38  39
ENDBRANCH  32  34
ENDBRANCH  26  28
ENDBRANCH   1  26
TORSDOF 0
ENDMDL
