MODEL 1
REMARK VINA RESULT:      -8.5      0.000      0.000
REMARK SMILES N#C[C@H]1CCN(C(=O)[C@@H]2NC(=O)c3c[nH]c4ncc(nc34)[C@@H]3C[C@@H]3CSCC23CC3)C1
REMARK SMILES IDX 13 1 14 2 15 3 16 4 17 5 18 6 19 7 20 8 21 9 11 11 10 12
REMARK SMILES IDX 12 13 9 15 7 16 8 17 6 18 1 19 2 20 3 21 4 22 31 23 5 24
REMARK SMILES IDX 28 25 29 26 30 27 22 29 23 30 24 31 25 32 26 33 27 34
REMARK H PARENT 15 10 10 14
REMARK Flexibility Score:  106.900
ROOT
ATOM      1  C   UNL     1      33.000  10.602  -2.955  1.00  0.00     0.085 A
ATOM      2  C   UNL     1      33.725   9.653  -2.246  1.00  0.00     0.100 A
ATOM      3  N   UNL     1      33.176   8.414  -2.483  1.00  0.00    -0.344 N
ATOM      4  C   UNL     1      32.108   8.540  -3.327  1.00  0.00     0.156 A
ATOM      5  N   UNL     1      31.303   7.552  -3.763  1.00  0.00    -0.235 NA
ATOM      6  C   UNL     1      30.336   8.054  -4.587  1.00  0.00     0.137 A
ATOM      7  C   UNL     1      30.176   9.399  -4.958  1.00  0.00     0.063 A
ATOM      8  N   UNL     1      31.030  10.339  -4.489  1.00  0.00    -0.247 NA
ATOM      9  C   UNL     1      31.994   9.881  -3.652  1.00  0.00     0.120 A
ATOM     10  H   UNL     1      33.486   7.536  -2.093  1.00  0.00     0.168 HD
ENDROOT
BRANCH   1  11
ATOM     11  C   UNL     1      33.216  12.043  -2.951  1.00  0.00     0.255 C
ATOM     12  N   UNL     1      32.230  12.748  -3.593  1.00  0.00    -0.340 N
ATOM     13  O   UNL     1      34.175  12.576  -2.402  1.00  0.00    -0.269 OA
ATOM     14  H   UNL     1      31.531  12.215  -4.103  1.00  0.00     0.164 HD
BRANCH  12  15
ATOM     15  C   UNL     1      32.197  14.194  -3.671  1.00  0.00     0.178 C
BRANCH  15  16
ATOM     16  C   UNL     1      32.203  14.622  -5.162  1.00  0.00     0.245 C
ATOM     17  O   UNL     1      32.239  13.784  -6.069  1.00  0.00    -0.272 OA
BRANCH  16  18
ATOM     18  N   UNL     1      32.191  15.971  -5.454  1.00  0.00    -0.340 N
ATOM     19  N   UNL     1      34.356  20.061  -6.406  1.00  0.00    -0.198 NA
ATOM     20  C   UNL     1      33.589  19.272  -6.039  1.00  0.00     0.067 C
ATOM     21  C   UNL     1      32.618  18.288  -5.562  1.00  0.00     0.114 C
ATOM     22  C   UNL     1      31.571  17.923  -6.612  1.00  0.00     0.042 C
ATOM     23  C   UNL     1      33.262  16.940  -5.253  1.00  0.00     0.138 C
ATOM     24  C   UNL     1      31.051  16.582  -6.115  1.00  0.00     0.121 C
ENDBRANCH  16  18
ENDBRANCH  15  16
BRANCH  15  25
ATOM     25  C   UNL     1      30.969  14.703  -2.892  1.00  0.00     0.009 C
ATOM     26  C   UNL     1      30.981  16.173  -2.483  1.00  0.00     0.011 C
ATOM     27  C   UNL     1      31.223  15.125  -1.442  1.00  0.00     0.011 C
ATOM     28  G   UNL     1      29.622  14.148  -3.360  1.00  0.00     0.000 C
ENDBRANCH  15  25
ENDBRANCH  12  15
ENDBRANCH   1  11
BRANCH   7  29
ATOM     29  C   UNL     1      29.074   9.829  -5.916  1.00  0.00     0.044 C
ATOM     30  C   UNL     1      27.730  10.214  -5.331  1.00  0.00     0.015 C
ATOM     31  C   UNL     1      27.827   9.007  -6.230  1.00  0.00     0.009 C
BRANCH  31  32
ATOM     32  C   UNL     1      27.603   7.607  -5.748  1.00  0.00     0.073 C
BRANCH  32  33
ATOM     33  S   UNL     1      26.675   6.657  -6.992  1.00  0.00    -0.161 SA
BRANCH  33  34
ATOM     34  C   UNL     1      28.050   6.031  -7.996  1.00  0.00     0.079 C
ATOM     35  G   UNL     1      29.313   5.588  -7.255  1.00  0.00     0.000 C
ENDBRANCH  33  34
ENDBRANCH  32  33
ENDBRANCH  31  32
ENDBRANCH   7  29
TORSDOF 2
ENDMDL
MODEL 2
REMARK VINA RESULT:      -8.4      3.621      9.273
REMARK SMILES N#C[C@H]1CCN(C(=O)[C@@H]2NC(=O)c3c[nH]c4ncc(nc34)[C@@H]3C[C@@H]3CSCC23CC3)C1
REMARK SMILES IDX 13 1 14 2 15 3 16 4 17 5 18 6 19 7 20 8 21 9 11 11 10 12
REMARK SMILES IDX 12 13 9 15 7 16 8 17 6 18 1 19 2 20 3 21 4 22 31 23 5 24
REMARK SMILES IDX 28 25 29 26 30 27 22 29 23 30 24 31 25 32 26 33 27 34
REMARK H PARENT 15 10 10 14
REMARK Flexibility Score:  106.900
ROOT
ATOM      1  C   UNL     1      28.195  16.743  -5.643  1.00  0.00     0.085 A
ATOM      2  C   UNL     1      27.089  16.848  -6.477  1.00  0.00     0.100 A
ATOM      3  N   UNL     1      27.008  18.142  -6.938  1.00  0.00    -0.344 N
ATOM      4  C   UNL     1      28.036  18.879  -6.418  1.00  0.00     0.156 A
ATOM      5  N   UNL     1      28.270  20.190  -6.618  1.00  0.00    -0.235 NA
ATOM      6  C   UNL     1      29.382  20.586  -5.931  1.00  0.00     0.137 A
ATOM      7  C   UNL     1      30.196  19.771  -5.127  1.00  0.00     0.063 A
ATOM      8  N   UNL     1      29.906  18.456  -4.980  1.00  0.00    -0.247 NA
ATOM      9  C   UNL     1      28.797  18.030  -5.633  1.00  0.00     0.120 A
ATOM     10  H   UNL     1      26.300  18.516  -7.554  1.00  0.00     0.168 HD
ENDROOT
BRANCH   1  11
ATOM     11  C   UNL     1      28.622  15.559  -4.909  1.00  0.00     0.255 C
ATOM     12  N   UNL     1      29.961  15.553  -4.607  1.00  0.00    -0.340 N
ATOM     13  O   UNL     1      27.853  14.667  -4.570  1.00  0.00    -0.269 OA
ATOM     14  H   UNL     1      30.535  16.284  -5.017  1.00  0.00     0.164 HD
BRANCH  12  15
ATOM     15  C   UNL     1      30.605  14.510  -3.837  1.00  0.00     0.178 C
BRANCH  15  16
ATOM     16  C   UNL     1      31.235  13.477  -4.808  1.00  0.00     0.245 C
ATOM     17  O   UNL     1      31.469  13.766  -5.986  1.00  0.00    -0.272 OA
BRANCH  16  18
ATOM     18  N   UNL     1      31.510  12.212  -4.327  1.00  0.00    -0.340 N
ATOM     19  N   UNL     1      30.921   7.525  -4.321  1.00  0.00    -0.198 NA
ATOM     20  C   UNL     1      31.132   8.616  -3.988  1.00  0.00     0.067 C
ATOM     21  C   UNL     1      31.390   9.988  -3.553  1.00  0.00     0.114 C
ATOM     22  C   UNL     1      32.857  10.392  -3.687  1.00  0.00     0.042 C
ATOM     23  C   UNL     1      30.681  11.017  -4.427  1.00  0.00     0.138 C
ATOM     24  C   UNL     1      32.785  11.912  -3.700  1.00  0.00     0.121 C
ENDBRANCH  16  18
ENDBRANCH  15  16
BRANCH  15  25
ATOM     25  C   UNL     1      31.628  15.160  -2.885  1.00  0.00     0.009 C
ATOM     26  C   UNL     1      31.856  14.462  -1.548  1.00  0.00     0.011 C
ATOM     27  C   UNL     1      31.062  15.730  -1.581  1.00  0.00     0.011 C
ATOM     28  G   UNL     1      32.872  15.740  -3.560  1.00  0.00     0.000 C
ENDBRANCH  15  25
ENDBRANCH  12  15
ENDBRANCH   1  11
BRANCH   7  29
ATOM     29  C   UNL     1      31.435  20.326  -4.438  1.00  0.00     0.044 C
ATOM     30  C   UNL     1      31.904  21.713  -4.822  1.00  0.00     0.015 C
ATOM     31  C   UNL     1      32.788  20.527  -5.115  1.00  0.00     0.009 C
BRANCH  31  32
ATOM     32  C   UNL     1      33.107  20.066  -6.504  1.00  0.00     0.073 C
BRANCH  32  33
ATOM     33  S   UNL     1      34.475  18.867  -6.466  1.00  0.00    -0.161 SA
BRANCH  33  34
ATOM     34  C   UNL     1      33.681  17.461  -7.293  1.00  0.00     0.079 C
ATOM     35  G   UNL     1      32.301  17.039  -6.786  1.00  0.00     0.000 C
ENDBRANCH  33  34
ENDBRANCH  32  33
ENDBRANCH  31  32
ENDBRANCH   7  29
TORSDOF 2
ENDMDL
MODEL 3
REMARK VINA RESULT:      -8.4      1.161      1.552
REMARK SMILES N#C[C@H]1CCN(C(=O)[C@@H]2NC(=O)c3c[nH]c4ncc(nc34)[C@@H]3C[C@@H]3CSCC23CC3)C1
REMARK SMILES IDX 13 1 14 2 15 3 16 4 17 5 18 6 19 7 20 8 21 9 11 11 10 12
REMARK SMILES IDX 12 13 9 15 7 16 8 17 6 18 1 19 2 20 3 21 4 22 31 23 5 24
REMARK SMILES IDX 28 25 29 26 30 27 22 29 23 30 24 31 25 32 26 33 27 34
REMARK H PARENT 15 10 10 14
REMARK Flexibility Score:  106.900
ROOT
ATOM      1  C   UNL     1      33.143  10.829  -3.005  1.00  0.00     0.085 A
ATOM      2  C   UNL     1      34.001   9.905  -2.421  1.00  0.00     0.100 A
ATOM      3  N   UNL     1      33.477   8.645  -2.600  1.00  0.00    -0.344 N
ATOM      4  C   UNL     1      32.296   8.732  -3.284  1.00  0.00     0.156 A
ATOM      5  N   UNL     1      31.481   7.715  -3.620  1.00  0.00    -0.235 NA
ATOM      6  C   UNL     1      30.388   8.181  -4.292  1.00  0.00     0.137 A
ATOM      7  C   UNL     1      30.119   9.522  -4.613  1.00  0.00     0.063 A
ATOM      8  N   UNL     1      30.990  10.494  -4.253  1.00  0.00    -0.247 NA
ATOM      9  C   UNL     1      32.081  10.071  -3.567  1.00  0.00     0.120 A
ATOM     10  H   UNL     1      33.877   7.777  -2.272  1.00  0.00     0.168 HD
ENDROOT
BRANCH   1  11
ATOM     11  C   UNL     1      33.295  12.277  -3.007  1.00  0.00     0.255 C
ATOM     12  N   UNL     1      32.291  12.935  -3.671  1.00  0.00    -0.340 N
ATOM     13  O   UNL     1      34.220  12.855  -2.445  1.00  0.00    -0.269 OA
ATOM     14  H   UNL     1      31.626  12.368  -4.190  1.00  0.00     0.164 HD
BRANCH  12  15
ATOM     15  C   UNL     1      32.197  14.377  -3.760  1.00  0.00     0.178 C
BRANCH  15  16
ATOM     16  C   UNL     1      32.192  14.795  -5.254  1.00  0.00     0.245 C
ATOM     17  O   UNL     1      32.295  13.955  -6.154  1.00  0.00    -0.272 OA
BRANCH  16  18
ATOM     18  N   UNL     1      32.094  16.138  -5.556  1.00  0.00    -0.340 N
ATOM     19  N   UNL     1      29.602  20.076  -6.334  1.00  0.00    -0.198 NA
ATOM     20  C   UNL     1      30.431  19.265  -6.362  1.00  0.00     0.067 C
ATOM     21  C   UNL     1      31.478  18.247  -6.416  1.00  0.00     0.114 C
ATOM     22  C   UNL     1      32.553  18.437  -5.348  1.00  0.00     0.042 C
ATOM     23  C   UNL     1      30.947  16.850  -6.107  1.00  0.00     0.138 C
ATOM     24  C   UNL     1      33.180  17.054  -5.254  1.00  0.00     0.121 C
ENDBRANCH  16  18
ENDBRANCH  15  16
BRANCH  15  25
ATOM     25  C   UNL     1      30.942  14.838  -2.991  1.00  0.00     0.009 C
ATOM     26  C   UNL     1      30.937  16.282  -2.498  1.00  0.00     0.011 C
ATOM     27  C   UNL     1      31.151  15.176  -1.512  1.00  0.00     0.011 C
ATOM     28  G   UNL     1      29.613  14.307  -3.531  1.00  0.00     0.000 C
ENDBRANCH  15  25
ENDBRANCH  12  15
ENDBRANCH   1  11
BRANCH   7  29
ATOM     29  C   UNL     1      28.876   9.913  -5.400  1.00  0.00     0.044 C
ATOM     30  C   UNL     1      27.696   8.963  -5.387  1.00  0.00     0.015 C
ATOM     31  C   UNL     1      28.413   9.233  -6.686  1.00  0.00     0.009 C
BRANCH  31  32
ATOM     32  C   UNL     1      29.206   8.191  -7.415  1.00  0.00     0.073 C
BRANCH  32  33
ATOM     33  S   UNL     1      28.373   6.578  -7.302  1.00  0.00    -0.161 SA
BRANCH  33  34
ATOM     34  C   UNL     1      27.117   6.782  -8.595  1.00  0.00     0.079 C
ATOM     35  G   UNL     1      25.672   6.994  -8.141  1.00  0.00     0.000 C
ENDBRANCH  33  34
ENDBRANCH  32  33
ENDBRANCH  31  32
ENDBRANCH   7  29
TORSDOF 2
ENDMDL
MODEL 4
REMARK VINA RESULT:      -8.3      3.809      8.520
REMARK SMILES N#C[C@H]1CCN(C(=O)[C@@H]2NC(=O)c3c[nH]c4ncc(nc34)[C@@H]3C[C@@H]3CSCC23CC3)C1
REMARK SMILES IDX 13 1 14 2 15 3 16 4 17 5 18 6 19 7 20 8 21 9 11 11 10 12
REMARK SMILES IDX 12 13 9 15 7 16 8 17 6 18 1 19 2 20 3 21 4 22 31 23 5 24
REMARK SMILES IDX 28 25 29 26 30 27 22 29 23 30 24 31 25 32 26 33 27 34
REMARK H PARENT 15 10 10 14
REMARK Flexibility Score:  106.900
ROOT
ATOM      1  C   UNL     1      27.934  13.546  -5.788  1.00  0.00     0.085 A
ATOM      2  C   UNL     1      27.018  12.889  -6.599  1.00  0.00     0.100 A
ATOM      3  N   UNL     1      26.245  13.831  -7.240  1.00  0.00    -0.344 N
ATOM      4  C   UNL     1      26.639  15.084  -6.859  1.00  0.00     0.156 A
ATOM      5  N   UNL     1      26.100  16.254  -7.251  1.00  0.00    -0.235 NA
ATOM      6  C   UNL     1      26.746  17.300  -6.658  1.00  0.00     0.137 A
ATOM      7  C   UNL     1      27.828  17.210  -5.766  1.00  0.00     0.063 A
ATOM      8  N   UNL     1      28.327  15.999  -5.423  1.00  0.00    -0.247 NA
ATOM      9  C   UNL     1      27.698  14.934  -5.979  1.00  0.00     0.120 A
ATOM     10  H   UNL     1      25.489  13.649  -7.884  1.00  0.00     0.168 HD
ENDROOT
BRANCH   1  11
ATOM     11  C   UNL     1      28.911  12.927  -4.902  1.00  0.00     0.255 C
ATOM     12  N   UNL     1      29.960  13.752  -4.579  1.00  0.00    -0.340 N
ATOM     13  O   UNL     1      28.793  11.788  -4.465  1.00  0.00    -0.269 OA
ATOM     14  H   UNL     1      30.023  14.639  -5.069  1.00  0.00     0.164 HD
BRANCH  12  15
ATOM     15  C   UNL     1      31.024  13.378  -3.671  1.00  0.00     0.178 C
BRANCH  15  16
ATOM     16  C   UNL     1      32.050  12.495  -4.428  1.00  0.00     0.245 C
ATOM     17  O   UNL     1      32.426  12.783  -5.569  1.00  0.00    -0.272 OA
BRANCH  16  18
ATOM     18  N   UNL     1      32.519  11.357  -3.802  1.00  0.00    -0.340 N
ATOM     19  N   UNL     1      35.112   9.159  -0.520  1.00  0.00    -0.198 NA
ATOM     20  C   UNL     1      34.541   9.407  -1.499  1.00  0.00     0.067 C
ATOM     21  C   UNL     1      33.835   9.710  -2.743  1.00  0.00     0.114 C
ATOM     22  C   UNL     1      32.373   9.270  -2.724  1.00  0.00     0.042 C
ATOM     23  C   UNL     1      33.727  11.211  -2.998  1.00  0.00     0.138 C
ATOM     24  C   UNL     1      31.752  10.124  -3.820  1.00  0.00     0.121 C
ENDBRANCH  16  18
ENDBRANCH  15  16
BRANCH  15  25
ATOM     25  C   UNL     1      31.640  14.661  -3.078  1.00  0.00     0.009 C
ATOM     26  C   UNL     1      32.164  15.690  -4.074  1.00  0.00     0.011 C
ATOM     27  C   UNL     1      33.141  14.852  -3.311  1.00  0.00     0.011 C
ATOM     28  G   UNL     1      30.924  15.221  -1.848  1.00  0.00     0.000 C
ENDBRANCH  15  25
ENDBRANCH  12  15
ENDBRANCH   1  11
BRANCH   7  29
ATOM     29  C   UNL     1      28.488  18.458  -5.196  1.00  0.00     0.044 C
ATOM     30  C   UNL     1      28.696  19.640  -6.119  1.00  0.00     0.015 C
ATOM     31  C   UNL     1      29.896  18.931  -5.546  1.00  0.00     0.009 C
BRANCH  31  32
ATOM     32  C   UNL     1      30.861  18.147  -6.382  1.00  0.00     0.073 C
BRANCH  32  33
ATOM     33  S   UNL     1      32.529  18.860  -6.248  1.00  0.00    -0.161 SA
BRANCH  33  34
ATOM     34  C   UNL     1      32.169  20.305  -5.211  1.00  0.00     0.079 C
ATOM     35  G   UNL     1      32.297  21.683  -5.862  1.00  0.00     0.000 C
ENDBRANCH  33  34
ENDBRANCH  32  33
ENDBRANCH  31  32
ENDBRANCH   7  29
TORSDOF 2
ENDMDL
MODEL 5
REMARK VINA RESULT:      -8.3      3.769      8.722
REMARK SMILES N#C[C@H]1CCN(C(=O)[C@@H]2NC(=O)c3c[nH]c4ncc(nc34)[C@@H]3C[C@@H]3CSCC23CC3)C1
REMARK SMILES IDX 13 1 14 2 15 3 16 4 17 5 18 6 19 7 20 8 21 9 11 11 10 12
REMARK SMILES IDX 12 13 9 15 7 16 8 17 6 18 1 19 2 20 3 21 4 22 31 23 5 24
REMARK SMILES IDX 28 25 29 26 30 27 22 29 23 30 24 31 25 32 26 33 27 34
REMARK H PARENT 15 10 10 14
REMARK Flexibility Score:  106.900
ROOT
ATOM      1  C   UNL     1      28.058  14.203  -6.119  1.00  0.00     0.085 A
ATOM      2  C   UNL     1      27.112  13.687  -6.995  1.00  0.00     0.100 A
ATOM      3  N   UNL     1      26.502  14.733  -7.650  1.00  0.00    -0.344 N
ATOM      4  C   UNL     1      27.030  15.916  -7.214  1.00  0.00     0.156 A
ATOM      5  N   UNL     1      26.666  17.153  -7.602  1.00  0.00    -0.235 NA
ATOM      6  C   UNL     1      27.406  18.096  -6.947  1.00  0.00     0.137 A
ATOM      7  C   UNL     1      28.416  17.850  -6.003  1.00  0.00     0.063 A
ATOM      8  N   UNL     1      28.738  16.578  -5.667  1.00  0.00    -0.247 NA
ATOM      9  C   UNL     1      28.011  15.614  -6.284  1.00  0.00     0.120 A
ATOM     10  H   UNL     1      25.766  14.662  -8.337  1.00  0.00     0.168 HD
ENDROOT
BRANCH   1  11
ATOM     11  C   UNL     1      28.898  13.447  -5.201  1.00  0.00     0.255 C
ATOM     12  N   UNL     1      30.053  14.099  -4.849  1.00  0.00    -0.340 N
ATOM     13  O   UNL     1      28.589  12.344  -4.763  1.00  0.00    -0.269 OA
ATOM     14  H   UNL     1      30.271  14.961  -5.340  1.00  0.00     0.164 HD
BRANCH  12  15
ATOM     15  C   UNL     1      31.017  13.571  -3.907  1.00  0.00     0.178 C
BRANCH  15  16
ATOM     16  C   UNL     1      31.983  12.612  -4.651  1.00  0.00     0.245 C
ATOM     17  O   UNL     1      32.366  12.854  -5.801  1.00  0.00    -0.272 OA
BRANCH  16  18
ATOM     18  N   UNL     1      32.389  11.461  -4.005  1.00  0.00    -0.340 N
ATOM     19  N   UNL     1      34.864   9.184  -0.687  1.00  0.00    -0.198 NA
ATOM     20  C   UNL     1      34.305   9.444  -1.670  1.00  0.00     0.067 C
ATOM     21  C   UNL     1      33.614   9.764  -2.918  1.00  0.00     0.114 C
ATOM     22  C   UNL     1      32.129   9.407  -2.887  1.00  0.00     0.042 C
ATOM     23  C   UNL     1      33.589  11.263  -3.201  1.00  0.00     0.138 C
ATOM     24  C   UNL     1      31.553  10.273  -3.998  1.00  0.00     0.121 C
ENDBRANCH  16  18
ENDBRANCH  15  16
BRANCH  15  25
ATOM     25  C   UNL     1      31.735  14.750  -3.220  1.00  0.00     0.009 C
ATOM     26  C   UNL     1      31.620  14.828  -1.701  1.00  0.00     0.011 C
ATOM     27  C   UNL     1      30.828  15.781  -2.541  1.00  0.00     0.011 C
ATOM     28  G   UNL     1      33.096  15.120  -3.811  1.00  0.00     0.000 C
ENDBRANCH  15  25
ENDBRANCH  12  15
ENDBRANCH   1  11
BRANCH   7  29
ATOM     29  C   UNL     1      29.197  18.990  -5.365  1.00  0.00     0.044 C
ATOM     30  C   UNL     1      29.887  19.982  -6.279  1.00  0.00     0.015 C
ATOM     31  C   UNL     1      30.718  19.111  -5.372  1.00  0.00     0.009 C
BRANCH  31  32
ATOM     32  C   UNL     1      31.641  18.046  -5.879  1.00  0.00     0.073 C
BRANCH  32  33
ATOM     33  S   UNL     1      33.114  18.802  -6.635  1.00  0.00    -0.161 SA
BRANCH  33  34
ATOM     34  C   UNL     1      33.462  20.098  -5.416  1.00  0.00     0.079 C
ATOM     35  G   UNL     1      33.991  21.432  -5.944  1.00  0.00     0.000 C
ENDBRANCH  33  34
ENDBRANCH  32  33
ENDBRANCH  31  32
ENDBRANCH   7  29
TORSDOF 2
ENDMDL
MODEL 6
REMARK VINA RESULT:      -8.2      2.394      4.337
REMARK SMILES N#C[C@H]1CCN(C(=O)[C@@H]2NC(=O)c3c[nH]c4ncc(nc34)[C@@H]3C[C@@H]3CSCC23CC3)C1
REMARK SMILES IDX 13 1 14 2 15 3 16 4 17 5 18 6 19 7 20 8 21 9 11 11 10 12
REMARK SMILES IDX 12 13 9 15 7 16 8 17 6 18 1 19 2 20 3 21 4 22 31 23 5 24
REMARK SMILES IDX 28 25 29 26 30 27 22 29 23 30 24 31 25 32 26 33 27 34
REMARK H PARENT 15 10 10 14
REMARK Flexibility Score:  106.900
ROOT
ATOM      1  C   UNL     1      29.316  12.683  -5.199  1.00  0.00     0.085 A
ATOM      2  C   UNL     1      28.073  13.299  -5.137  1.00  0.00     0.100 A
ATOM      3  N   UNL     1      27.100  12.325  -5.136  1.00  0.00    -0.344 N
ATOM      4  C   UNL     1      27.686  11.092  -5.201  1.00  0.00     0.156 A
ATOM      5  N   UNL     1      27.059   9.902  -5.250  1.00  0.00    -0.235 NA
ATOM      6  C   UNL     1      27.968   8.885  -5.318  1.00  0.00     0.137 A
ATOM      7  C   UNL     1      29.366   9.020  -5.330  1.00  0.00     0.063 A
ATOM      8  N   UNL     1      29.930  10.250  -5.268  1.00  0.00    -0.247 NA
ATOM      9  C   UNL     1      29.058  11.286  -5.217  1.00  0.00     0.120 A
ATOM     10  H   UNL     1      26.102  12.475  -5.108  1.00  0.00     0.168 HD
ENDROOT
BRANCH   1  11
ATOM     11  C   UNL     1      30.612  13.345  -5.266  1.00  0.00     0.255 C
ATOM     12  N   UNL     1      30.652  14.545  -4.601  1.00  0.00    -0.340 N
ATOM     13  O   UNL     1      31.583  12.862  -5.839  1.00  0.00    -0.269 OA
ATOM     14  H   UNL     1      29.773  14.910  -4.244  1.00  0.00     0.164 HD
BRANCH  12  15
ATOM     15  C   UNL     1      31.844  15.357  -4.481  1.00  0.00     0.178 C
BRANCH  15  16
ATOM     16  C   UNL     1      31.467  16.847  -4.692  1.00  0.00     0.245 C
ATOM     17  O   UNL     1      30.441  17.325  -4.195  1.00  0.00    -0.272 OA
BRANCH  16  18
ATOM     18  N   UNL     1      32.297  17.627  -5.472  1.00  0.00    -0.340 N
ATOM     19  N   UNL     1      34.966  21.457  -6.199  1.00  0.00    -0.198 NA
ATOM     20  C   UNL     1      34.271  20.543  -6.363  1.00  0.00     0.067 C
ATOM     21  C   UNL     1      33.385  19.401  -6.583  1.00  0.00     0.114 C
ATOM     22  C   UNL     1      34.140  18.101  -6.856  1.00  0.00     0.042 C
ATOM     23  C   UNL     1      32.566  19.054  -5.343  1.00  0.00     0.138 C
ATOM     24  C   UNL     1      33.105  17.037  -6.525  1.00  0.00     0.121 C
ENDBRANCH  16  18
ENDBRANCH  15  16
BRANCH  15  25
ATOM     25  C   UNL     1      32.496  15.078  -3.112  1.00  0.00     0.009 C
ATOM     26  C   UNL     1      33.964  15.465  -2.964  1.00  0.00     0.011 C
ATOM     27  C   UNL     1      33.602  14.020  -3.101  1.00  0.00     0.011 C
ATOM     28  G   UNL     1      31.605  15.344  -1.898  1.00  0.00     0.000 C
ENDBRANCH  15  25
ENDBRANCH  12  15
ENDBRANCH   1  11
BRANCH   7  29
ATOM     29  C   UNL     1      30.277   7.802  -5.374  1.00  0.00     0.044 C
ATOM     30  C   UNL     1      29.876   6.581  -4.573  1.00  0.00     0.015 C
ATOM     31  C   UNL     1      31.139   7.321  -4.210  1.00  0.00     0.009 C
BRANCH  31  32
ATOM     32  C   UNL     1      31.309   8.073  -2.926  1.00  0.00     0.073 C
BRANCH  32  33
ATOM     33  S   UNL     1      32.666   9.275  -3.079  1.00  0.00    -0.161 SA
BRANCH  33  34
ATOM     34  C   UNL     1      33.478   9.037  -1.475  1.00  0.00     0.079 C
ATOM     35  G   UNL     1      34.925   9.513  -1.345  1.00  0.00     0.000 C
ENDBRANCH  33  34
ENDBRANCH  32  33
ENDBRANCH  31  32
ENDBRANCH   7  29
TORSDOF 2
ENDMDL
MODEL 7
REMARK VINA RESULT:      -8.2      1.225      1.608
REMARK SMILES N#C[C@H]1CCN(C(=O)[C@@H]2NC(=O)c3c[nH]c4ncc(nc34)[C@@H]3C[C@@H]3CSCC23CC3)C1
REMARK SMILES IDX 13 1 14 2 15 3 16 4 17 5 18 6 19 7 20 8 21 9 11 11 10 12
REMARK SMILES IDX 12 13 9 15 7 16 8 17 6 18 1 19 2 20 3 21 4 22 31 23 5 24
REMARK SMILES IDX 28 25 29 26 30 27 22 29 23 30 24 31 25 32 26 33 27 34
REMARK H PARENT 15 10 10 14
REMARK Flexibility Score:  106.900
ROOT
ATOM      1  C   UNL     1      32.992  10.631  -2.974  1.00  0.00     0.085 A
ATOM      2  C   UNL     1      33.717   9.687  -2.258  1.00  0.00     0.100 A
ATOM      3  N   UNL     1      33.168   8.446  -2.490  1.00  0.00    -0.344 N
ATOM      4  C   UNL     1      32.102   8.566  -3.337  1.00  0.00     0.156 A
ATOM      5  N   UNL     1      31.299   7.576  -3.770  1.00  0.00    -0.235 NA
ATOM      6  C   UNL     1      30.333   8.072  -4.598  1.00  0.00     0.137 A
ATOM      7  C   UNL     1      30.172   9.416  -4.976  1.00  0.00     0.063 A
ATOM      8  N   UNL     1      31.025  10.359  -4.510  1.00  0.00    -0.247 NA
ATOM      9  C   UNL     1      31.988   9.906  -3.669  1.00  0.00     0.120 A
ATOM     10  H   UNL     1      33.479   7.569  -2.095  1.00  0.00     0.168 HD
ENDROOT
BRANCH   1  11
ATOM     11  C   UNL     1      33.207  12.072  -2.977  1.00  0.00     0.255 C
ATOM     12  N   UNL     1      32.212  12.775  -3.608  1.00  0.00    -0.340 N
ATOM     13  O   UNL     1      34.173  12.607  -2.442  1.00  0.00    -0.269 OA
ATOM     14  H   UNL     1      31.508  12.240  -4.108  1.00  0.00     0.164 HD
BRANCH  12  15
ATOM     15  C   UNL     1      32.178  14.220  -3.691  1.00  0.00     0.178 C
BRANCH  15  16
ATOM     16  C   UNL     1      32.146  14.643  -5.183  1.00  0.00     0.245 C
ATOM     17  O   UNL     1      32.266  13.810  -6.087  1.00  0.00    -0.272 OA
BRANCH  16  18
ATOM     18  N   UNL     1      32.004  15.984  -5.479  1.00  0.00    -0.340 N
ATOM     19  N   UNL     1      29.398  19.878  -6.080  1.00  0.00    -0.198 NA
ATOM     20  C   UNL     1      30.236  19.081  -6.167  1.00  0.00     0.067 C
ATOM     21  C   UNL     1      31.294  18.080  -6.295  1.00  0.00     0.114 C
ATOM     22  C   UNL     1      32.439  18.290  -5.307  1.00  0.00     0.042 C
ATOM     23  C   UNL     1      30.809  16.676  -5.947  1.00  0.00     0.138 C
ATOM     24  C   UNL     1      33.094  16.918  -5.257  1.00  0.00     0.121 C
ENDBRANCH  16  18
ENDBRANCH  15  16
BRANCH  15  25
ATOM     25  C   UNL     1      30.969  14.732  -2.883  1.00  0.00     0.009 C
ATOM     26  C   UNL     1      31.024  16.185  -2.421  1.00  0.00     0.011 C
ATOM     27  C   UNL     1      31.246  15.094  -1.421  1.00  0.00     0.011 C
ATOM     28  G   UNL     1      29.605  14.229  -3.358  1.00  0.00     0.000 C
ENDBRANCH  15  25
ENDBRANCH  12  15
ENDBRANCH   1  11
BRANCH   7  29
ATOM     29  C   UNL     1      29.072   9.840  -5.938  1.00  0.00     0.044 C
ATOM     30  C   UNL     1      27.727  10.225  -5.359  1.00  0.00     0.015 C
ATOM     31  C   UNL     1      27.827   9.015  -6.252  1.00  0.00     0.009 C
BRANCH  31  32
ATOM     32  C   UNL     1      27.604   7.616  -5.764  1.00  0.00     0.073 C
BRANCH  32  33
ATOM     33  S   UNL     1      25.827   7.227  -5.770  1.00  0.00    -0.161 SA
BRANCH  33  34
ATOM     34  C   UNL     1      25.901   5.420  -5.627  1.00  0.00     0.079 C
ATOM     35  G   UNL     1      26.167   4.839  -4.238  1.00  0.00     0.000 C
ENDBRANCH  33  34
ENDBRANCH  32  33
ENDBRANCH  31  32
ENDBRANCH   7  29
TORSDOF 2
ENDMDL
MODEL 8
REMARK VINA RESULT:      -8.1      4.114      9.343
REMARK SMILES N#C[C@H]1CCN(C(=O)[C@@H]2NC(=O)c3c[nH]c4ncc(nc34)[C@@H]3C[C@@H]3CSCC23CC3)C1
REMARK SMILES IDX 13 1 14 2 15 3 16 4 17 5 18 6 19 7 20 8 21 9 11 11 10 12
REMARK SMILES IDX 12 13 9 15 7 16 8 17 6 18 1 19 2 20 3 21 4 22 31 23 5 24
REMARK SMILES IDX 28 25 29 26 30 27 22 29 23 30 24 31 25 32 26 33 27 34
REMARK H PARENT 15 10 10 14
REMARK Flexibility Score:  106.900
ROOT
ATOM      1  C   UNL     1      32.321  18.379  -5.771  1.00  0.00     0.085 A
ATOM      2  C   UNL     1      33.515  19.083  -5.684  1.00  0.00     0.100 A
ATOM      3  N   UNL     1      33.245  20.425  -5.826  1.00  0.00    -0.344 N
ATOM      4  C   UNL     1      31.902  20.606  -6.008  1.00  0.00     0.156 A
ATOM      5  N   UNL     1      31.266  21.775  -6.211  1.00  0.00    -0.235 NA
ATOM      6  C   UNL     1      29.924  21.569  -6.360  1.00  0.00     0.137 A
ATOM      7  C   UNL     1      29.264  20.330  -6.308  1.00  0.00     0.063 A
ATOM      8  N   UNL     1      29.967  19.193  -6.089  1.00  0.00    -0.247 NA
ATOM      9  C   UNL     1      31.306  19.357  -5.954  1.00  0.00     0.120 A
ATOM     10  H   UNL     1      33.920  21.177  -5.816  1.00  0.00     0.168 HD
ENDROOT
BRANCH   1  11
ATOM     11  C   UNL     1      32.157  16.933  -5.718  1.00  0.00     0.255 C
ATOM     12  N   UNL     1      32.162  16.426  -4.443  1.00  0.00    -0.340 N
ATOM     13  O   UNL     1      32.004  16.238  -6.717  1.00  0.00    -0.269 OA
ATOM     14  H   UNL     1      32.396  17.064  -3.688  1.00  0.00     0.164 HD
BRANCH  12  15
ATOM     15  C   UNL     1      31.960  15.025  -4.135  1.00  0.00     0.178 C
BRANCH  15  16
ATOM     16  C   UNL     1      33.238  14.466  -3.456  1.00  0.00     0.245 C
ATOM     17  O   UNL     1      34.088  15.220  -2.971  1.00  0.00    -0.272 OA
BRANCH  16  18
ATOM     18  N   UNL     1      33.416  13.097  -3.428  1.00  0.00    -0.340 N
ATOM     19  N   UNL     1      34.515   9.071  -1.214  1.00  0.00    -0.198 NA
ATOM     20  C   UNL     1      34.370   9.884  -2.028  1.00  0.00     0.067 C
ATOM     21  C   UNL     1      34.203  10.904  -3.063  1.00  0.00     0.114 C
ATOM     22  C   UNL     1      32.842  10.838  -3.753  1.00  0.00     0.042 C
ATOM     23  C   UNL     1      34.218  12.318  -2.491  1.00  0.00     0.138 C
ATOM     24  C   UNL     1      32.702  12.231  -4.350  1.00  0.00     0.121 C
ENDBRANCH  16  18
ENDBRANCH  15  16
BRANCH  15  25
ATOM     25  C   UNL     1      30.694  14.887  -3.267  1.00  0.00     0.009 C
ATOM     26  C   UNL     1      29.803  13.681  -3.546  1.00  0.00     0.011 C
ATOM     27  C   UNL     1      29.359  15.036  -4.001  1.00  0.00     0.011 C
ATOM     28  G   UNL     1      30.867  15.268  -1.796  1.00  0.00     0.000 C
ENDBRANCH  15  25
ENDBRANCH  12  15
ENDBRANCH   1  11
BRANCH   7  29
ATOM     29  C   UNL     1      27.752  20.233  -6.456  1.00  0.00     0.044 C
ATOM     30  C   UNL     1      27.181  19.030  -7.177  1.00  0.00     0.015 C
ATOM     31  C   UNL     1      26.995  20.404  -7.771  1.00  0.00     0.009 C
BRANCH  31  32
ATOM     32  C   UNL     1      27.635  20.834  -9.055  1.00  0.00     0.073 C
BRANCH  32  33
ATOM     33  S   UNL     1      26.362  21.385 -10.234  1.00  0.00    -0.161 SA
BRANCH  33  34
ATOM     34  C   UNL     1      25.398  19.856 -10.391  1.00  0.00     0.079 C
ATOM     35  G   UNL     1      26.116  18.633 -10.963  1.00  0.00     0.000 C
ENDBRANCH  33  34
ENDBRANCH  32  33
ENDBRANCH  31  32
ENDBRANCH   7  29
TORSDOF 2
ENDMDL
MODEL 9
REMARK VINA RESULT:      -8.1      3.715      6.044
REMARK SMILES N#C[C@H]1CCN(C(=O)[C@@H]2NC(=O)c3c[nH]c4ncc(nc34)[C@@H]3C[C@@H]3CSCC23CC3)C1
REMARK SMILES IDX 13 1 14 2 15 3 16 4 17 5 18 6 19 7 20 8 21 9 11 11 10 12
REMARK SMILES IDX 12 13 9 15 7 16 8 17 6 18 1 19 2 20 3 21 4 22 31 23 5 24
REMARK SMILES IDX 28 25 29 26 30 27 22 29 23 30 24 31 25 32 26 33 27 34
REMARK H PARENT 15 10 10 14
REMARK Flexibility Score:  106.900
ROOT
ATOM      1  C   UNL     1      28.029  12.959  -5.169  1.00  0.00     0.085 A
ATOM      2  C   UNL     1      27.567  11.800  -5.778  1.00  0.00     0.100 A
ATOM      3  N   UNL     1      28.532  10.826  -5.657  1.00  0.00    -0.344 N
ATOM      4  C   UNL     1      29.612  11.331  -4.987  1.00  0.00     0.156 A
ATOM      5  N   UNL     1      30.760  10.687  -4.704  1.00  0.00    -0.235 NA
ATOM      6  C   UNL     1      31.616  11.510  -4.030  1.00  0.00     0.137 A
ATOM      7  C   UNL     1      31.368  12.842  -3.659  1.00  0.00     0.063 A
ATOM      8  N   UNL     1      30.184  13.424  -3.967  1.00  0.00    -0.247 NA
ATOM      9  C   UNL     1      29.315  12.642  -4.654  1.00  0.00     0.120 A
ATOM     10  H   UNL     1      28.480   9.882  -6.014  1.00  0.00     0.168 HD
ENDROOT
BRANCH   1  11
ATOM     11  C   UNL     1      27.342  14.242  -5.107  1.00  0.00     0.255 C
ATOM     12  N   UNL     1      28.013  15.257  -5.742  1.00  0.00    -0.340 N
ATOM     13  O   UNL     1      26.254  14.394  -4.562  1.00  0.00    -0.269 OA
ATOM     14  H   UNL     1      28.952  15.058  -6.075  1.00  0.00     0.164 HD
BRANCH  12  15
ATOM     15  C   UNL     1      27.502  16.606  -5.861  1.00  0.00     0.178 C
BRANCH  15  16
ATOM     16  C   UNL     1      28.491  17.586  -5.176  1.00  0.00     0.245 C
ATOM     17  O   UNL     1      28.090  18.609  -4.611  1.00  0.00    -0.272 OA
BRANCH  16  18
ATOM     18  N   UNL     1      29.840  17.298  -5.233  1.00  0.00    -0.340 N
ATOM     19  N   UNL     1      34.090  17.576  -7.278  1.00  0.00    -0.198 NA
ATOM     20  C   UNL     1      33.175  17.205  -6.669  1.00  0.00     0.067 C
ATOM     21  C   UNL     1      32.025  16.720  -5.907  1.00  0.00     0.114 C
ATOM     22  C   UNL     1      32.052  17.155  -4.443  1.00  0.00     0.042 C
ATOM     23  C   UNL     1      30.709  17.309  -6.404  1.00  0.00     0.138 C
ATOM     24  C   UNL     1      30.595  17.015  -4.025  1.00  0.00     0.121 C
ENDBRANCH  16  18
ENDBRANCH  15  16
BRANCH  15  25
ATOM     25  C   UNL     1      27.267  16.916  -7.353  1.00  0.00     0.009 C
ATOM     26  C   UNL     1      27.264  18.388  -7.752  1.00  0.00     0.011 C
ATOM     27  C   UNL     1      25.965  17.648  -7.687  1.00  0.00     0.011 C
ATOM     28  G   UNL     1      27.942  15.956  -8.333  1.00  0.00     0.000 C
ENDBRANCH  15  25
ENDBRANCH  12  15
ENDBRANCH   1  11
BRANCH   7  29
ATOM     29  C   UNL     1      32.393  13.648  -2.875  1.00  0.00     0.044 C
ATOM     30  C   UNL     1      33.610  14.165  -3.614  1.00  0.00     0.015 C
ATOM     31  C   UNL     1      33.791  13.154  -2.510  1.00  0.00     0.009 C
BRANCH  31  32
ATOM     32  C   UNL     1      34.275  11.757  -2.749  1.00  0.00     0.073 C
BRANCH  32  33
ATOM     33  S   UNL     1      35.531  11.309  -1.512  1.00  0.00    -0.161 SA
BRANCH  33  34
ATOM     34  C   UNL     1      35.006   9.615  -1.131  1.00  0.00     0.079 C
ATOM     35  G   UNL     1      33.825   9.054  -1.924  1.00  0.00     0.000 C
ENDBRANCH  33  34
ENDBRANCH  32  33
ENDBRANCH  31  32
ENDBRANCH   7  29
TORSDOF 2
ENDMDL
