MODEL 1
REMARK VINA RESULT:      -7.9      0.000      0.000
REMARK SMILES N#C[C@H]1CCN(C(=O)[C@@H]2NC(=O)c3c[nH]c4ncc(nc34)C3(CC3)CNC[C@@H]3C[C@H]32)C1
REMARK SMILES IDX 13 1 14 2 15 3 16 4 17 5 18 6 19 7 20 8 21 9 11 11 10 12
REMARK SMILES IDX 12 13 9 15 7 16 8 17 6 18 1 19 2 20 3 21 4 22 31 23 5 24
REMARK SMILES IDX 30 25 29 26 28 27 22 29 23 30 24 31 25 32 26 33 27 35
REMARK H PARENT 15 10 10 14 26 34
REMARK Flexibility Score:  106.900
ROOT
ATOM      1  C   UNL     1      33.882  11.220  -2.831  1.00  0.00     0.085 A
ATOM      2  C   UNL     1      34.812  10.458  -2.137  1.00  0.00     0.100 A
ATOM      3  N   UNL     1      34.389   9.147  -2.135  1.00  0.00    -0.344 N
ATOM      4  C   UNL     1      33.193   9.053  -2.791  1.00  0.00     0.156 A
ATOM      5  N   UNL     1      32.440   7.947  -2.942  1.00  0.00    -0.235 NA
ATOM      6  C   UNL     1      31.292   8.244  -3.624  1.00  0.00     0.138 A
ATOM      7  C   UNL     1      30.926   9.501  -4.136  1.00  0.00     0.067 A
ATOM      8  N   UNL     1      31.749  10.558  -3.963  1.00  0.00    -0.246 NA
ATOM      9  C   UNL     1      32.879  10.316  -3.260  1.00  0.00     0.120 A
ATOM     10  H   UNL     1      34.855   8.368  -1.694  1.00  0.00     0.168 HD
ENDROOT
BRANCH   1  11
ATOM     11  C   UNL     1      33.907  12.664  -3.019  1.00  0.00     0.255 C
ATOM     12  N   UNL     1      32.875  13.152  -3.782  1.00  0.00    -0.340 N
ATOM     13  O   UNL     1      34.757  13.384  -2.503  1.00  0.00    -0.269 OA
ATOM     14  H   UNL     1      32.211  12.495  -4.194  1.00  0.00     0.164 HD
BRANCH  12  15
ATOM     15  C   UNL     1      32.612  14.566  -3.923  1.00  0.00     0.175 C
BRANCH  15  16
ATOM     16  C   UNL     1      32.373  14.893  -5.424  1.00  0.00     0.245 C
ATOM     17  O   UNL     1      32.287  13.999  -6.272  1.00  0.00    -0.272 OA
BRANCH  16  18
ATOM     18  N   UNL     1      32.262  16.221  -5.789  1.00  0.00    -0.340 N
ATOM     19  N   UNL     1      34.406  20.365  -6.487  1.00  0.00    -0.198 NA
ATOM     20  C   UNL     1      33.662  19.551  -6.127  1.00  0.00     0.067 C
ATOM     21  C   UNL     1      32.717  18.529  -5.680  1.00  0.00     0.114 C
ATOM     22  C   UNL     1      31.588  18.288  -6.684  1.00  0.00     0.042 C
ATOM     23  C   UNL     1      33.359  17.151  -5.577  1.00  0.00     0.138 C
ATOM     24  C   UNL     1      31.089  16.899  -6.311  1.00  0.00     0.121 C
ENDBRANCH  16  18
ENDBRANCH  15  16
BRANCH  15  25
ATOM     25  C   UNL     1      31.394  14.916  -3.095  1.00  0.00     0.026 C
ATOM     26  C   UNL     1      31.143  16.340  -2.657  1.00  0.00     0.012 C
ATOM     27  C   UNL     1      31.522  15.304  -1.628  1.00  0.00     0.009 C
ATOM     28  G   UNL     1      30.507  14.825  -0.632  1.00  0.00     0.000 C
ENDBRANCH  15  25
ENDBRANCH  12  15
ENDBRANCH   1  11
BRANCH   7  29
ATOM     29  C   UNL     1      29.605   9.782  -4.874  1.00  0.00     0.027 C
ATOM     30  C   UNL     1      29.471   9.220  -6.289  1.00  0.00     0.016 C
ATOM     31  C   UNL     1      28.622   8.659  -5.194  1.00  0.00     0.016 C
BRANCH  29  32
ATOM     32  C   UNL     1      29.011  11.166  -4.578  1.00  0.00     0.094 C
BRANCH  32  33
ATOM     33  N   UNL     1      29.798  12.219  -5.229  1.00  0.00    -0.315 NA
ATOM     34  H   UNL     1      30.285  11.817  -6.026  1.00  0.00     0.122 HD
BRANCH  33  35
ATOM     35  C   UNL     1      28.979  13.336  -5.681  1.00  0.00     0.085 C
ATOM     36  G   UNL     1      27.531  12.993  -5.484  1.00  0.00     0.000 C
ENDBRANCH  33  35
ENDBRANCH  32  33
ENDBRANCH  29  32
ENDBRANCH   7  29
TORSDOF 2
ENDMDL
MODEL 2
REMARK VINA RESULT:      -7.8      1.856      3.730
REMARK SMILES N#C[C@H]1CCN(C(=O)[C@@H]2NC(=O)c3c[nH]c4ncc(nc34)C3(CC3)CNC[C@@H]3C[C@H]32)C1
REMARK SMILES IDX 13 1 14 2 15 3 16 4 17 5 18 6 19 7 20 8 21 9 11 11 10 12
REMARK SMILES IDX 12 13 9 15 7 16 8 17 6 18 1 19 2 20 3 21 4 22 31 23 5 24
REMARK SMILES IDX 30 25 29 26 28 27 22 29 23 30 24 31 25 32 26 33 27 35
REMARK H PARENT 15 10 10 14 26 34
REMARK Flexibility Score:  106.900
ROOT
ATOM      1  C   UNL     1      33.456  14.692  -2.995  1.00  0.00     0.085 A
ATOM      2  C   UNL     1      34.642  15.349  -2.696  1.00  0.00     0.100 A
ATOM      3  N   UNL     1      35.604  14.405  -2.410  1.00  0.00    -0.344 N
ATOM      4  C   UNL     1      35.056  13.156  -2.493  1.00  0.00     0.156 A
ATOM      5  N   UNL     1      35.667  11.986  -2.223  1.00  0.00    -0.235 NA
ATOM      6  C   UNL     1      34.793  10.946  -2.381  1.00  0.00     0.138 A
ATOM      7  C   UNL     1      33.451  11.037  -2.792  1.00  0.00     0.067 A
ATOM      8  N   UNL     1      32.918  12.249  -3.068  1.00  0.00    -0.246 NA
ATOM      9  C   UNL     1      33.739  13.309  -2.887  1.00  0.00     0.120 A
ATOM     10  H   UNL     1      36.561  14.586  -2.143  1.00  0.00     0.168 HD
ENDROOT
BRANCH   1  11
ATOM     11  C   UNL     1      32.172  15.310  -3.292  1.00  0.00     0.255 C
ATOM     12  N   UNL     1      31.905  15.438  -4.633  1.00  0.00    -0.340 N
ATOM     13  O   UNL     1      31.379  15.647  -2.417  1.00  0.00    -0.269 OA
ATOM     14  H   UNL     1      32.615  15.152  -5.308  1.00  0.00     0.164 HD
BRANCH  12  15
ATOM     15  C   UNL     1      30.611  15.844  -5.135  1.00  0.00     0.175 C
BRANCH  15  16
ATOM     16  C   UNL     1      30.809  16.759  -6.376  1.00  0.00     0.245 C
ATOM     17  O   UNL     1      29.985  16.783  -7.296  1.00  0.00    -0.272 OA
BRANCH  16  18
ATOM     18  N   UNL     1      31.941  17.549  -6.425  1.00  0.00    -0.340 N
ATOM     19  N   UNL     1      34.134  21.477  -5.005  1.00  0.00    -0.198 NA
ATOM     20  C   UNL     1      33.698  20.632  -5.669  1.00  0.00     0.067 C
ATOM     21  C   UNL     1      33.159  19.563  -6.508  1.00  0.00     0.114 C
ATOM     22  C   UNL     1      34.125  18.387  -6.661  1.00  0.00     0.042 C
ATOM     23  C   UNL     1      31.936  18.900  -5.886  1.00  0.00     0.138 C
ATOM     24  C   UNL     1      33.207  17.241  -7.063  1.00  0.00     0.121 C
ENDBRANCH  16  18
ENDBRANCH  15  16
BRANCH  15  25
ATOM     25  C   UNL     1      29.824  14.604  -5.499  1.00  0.00     0.026 C
ATOM     26  C   UNL     1      28.313  14.613  -5.463  1.00  0.00     0.012 C
ATOM     27  C   UNL     1      29.074  13.806  -4.441  1.00  0.00     0.009 C
ATOM     28  G   UNL     1      29.059  12.306  -4.501  1.00  0.00     0.000 C
ENDBRANCH  15  25
ENDBRANCH  12  15
ENDBRANCH   1  11
BRANCH   7  29
ATOM     29  C   UNL     1      32.505   9.832  -2.928  1.00  0.00     0.027 C
ATOM     30  C   UNL     1      33.068   8.464  -2.541  1.00  0.00     0.016 C
ATOM     31  C   UNL     1      31.998   9.081  -1.700  1.00  0.00     0.016 C
BRANCH  29  32
ATOM     32  C   UNL     1      31.559   9.918  -4.133  1.00  0.00     0.094 C
BRANCH  32  33
ATOM     33  N   UNL     1      30.981   8.604  -4.434  1.00  0.00    -0.315 NA
ATOM     34  H   UNL     1      30.721   8.153  -3.561  1.00  0.00     0.122 HD
BRANCH  33  35
ATOM     35  C   UNL     1      29.809   8.688  -5.297  1.00  0.00     0.085 C
ATOM     36  G   UNL     1      29.338   7.300  -5.619  1.00  0.00     0.000 C
ENDBRANCH  33  35
ENDBRANCH  32  33
ENDBRANCH  29  32
ENDBRANCH   7  29
TORSDOF 2
ENDMDL
MODEL 3
REMARK VINA RESULT:      -7.8      2.058      4.136
REMARK SMILES N#C[C@H]1CCN(C(=O)[C@@H]2NC(=O)c3c[nH]c4ncc(nc34)C3(CC3)CNC[C@@H]3C[C@H]32)C1
REMARK SMILES IDX 13 1 14 2 15 3 16 4 17 5 18 6 19 7 20 8 21 9 11 11 10 12
REMARK SMILES IDX 12 13 9 15 7 16 8 17 6 18 1 19 2 20 3 21 4 22 31 23 5 24
REMARK SMILES IDX 30 25 29 26 28 27 22 29 23 30 24 31 25 32 26 33 27 35
REMARK H PARENT 15 10 10 14 26 34
REMARK Flexibility Score:  106.900
ROOT
ATOM      1  C   UNL     1      32.473  14.647  -3.343  1.00  0.00     0.085 A
ATOM      2  C   UNL     1      33.483  15.573  -3.117  1.00  0.00     0.100 A
ATOM      3  N   UNL     1      34.631  14.893  -2.773  1.00  0.00    -0.344 N
ATOM      4  C   UNL     1      34.375  13.550  -2.748  1.00  0.00     0.156 A
ATOM      5  N   UNL     1      35.231  12.572  -2.397  1.00  0.00    -0.235 NA
ATOM      6  C   UNL     1      34.611  11.354  -2.458  1.00  0.00     0.138 A
ATOM      7  C   UNL     1      33.284  11.111  -2.853  1.00  0.00     0.067 A
ATOM      8  N   UNL     1      32.494  12.147  -3.214  1.00  0.00    -0.246 NA
ATOM      9  C   UNL     1      33.057  13.374  -3.132  1.00  0.00     0.120 A
ATOM     10  H   UNL     1      35.523  15.303  -2.538  1.00  0.00     0.168 HD
ENDROOT
BRANCH   1  11
ATOM     11  C   UNL     1      31.084  14.937  -3.667  1.00  0.00     0.255 C
ATOM     12  N   UNL     1      30.867  16.214  -4.125  1.00  0.00    -0.340 N
ATOM     13  O   UNL     1      30.193  14.098  -3.577  1.00  0.00    -0.269 OA
ATOM     14  H   UNL     1      31.650  16.867  -4.160  1.00  0.00     0.164 HD
BRANCH  12  15
ATOM     15  C   UNL     1      29.601  16.636  -4.681  1.00  0.00     0.175 C
BRANCH  15  16
ATOM     16  C   UNL     1      29.654  18.164  -4.967  1.00  0.00     0.245 C
ATOM     17  O   UNL     1      28.665  18.885  -4.802  1.00  0.00    -0.272 OA
BRANCH  16  18
ATOM     18  N   UNL     1      30.846  18.698  -5.416  1.00  0.00    -0.340 N
ATOM     19  N   UNL     1      34.345  21.790  -4.738  1.00  0.00    -0.198 NA
ATOM     20  C   UNL     1      33.489  21.177  -5.225  1.00  0.00     0.067 C
ATOM     21  C   UNL     1      32.417  20.399  -5.845  1.00  0.00     0.114 C
ATOM     22  C   UNL     1      32.916  19.090  -6.461  1.00  0.00     0.042 C
ATOM     23  C   UNL     1      31.393  19.911  -4.828  1.00  0.00     0.138 C
ATOM     24  C   UNL     1      31.653  18.244  -6.535  1.00  0.00     0.121 C
ENDBRANCH  16  18
ENDBRANCH  15  16
BRANCH  15  25
ATOM     25  C   UNL     1      29.349  15.858  -5.954  1.00  0.00     0.026 C
ATOM     26  C   UNL     1      28.408  16.391  -7.010  1.00  0.00     0.012 C
ATOM     27  C   UNL     1      28.012  15.175  -6.210  1.00  0.00     0.009 C
ATOM     28  G   UNL     1      27.971  13.824  -6.863  1.00  0.00     0.000 C
ENDBRANCH  15  25
ENDBRANCH  12  15
ENDBRANCH   1  11
BRANCH   7  29
ATOM     29  C   UNL     1      32.631   9.718  -2.877  1.00  0.00     0.027 C
ATOM     30  C   UNL     1      33.510   8.535  -2.473  1.00  0.00     0.016 C
ATOM     31  C   UNL     1      32.375   8.941  -1.589  1.00  0.00     0.016 C
BRANCH  29  32
ATOM     32  C   UNL     1      31.624   9.524  -4.020  1.00  0.00     0.094 C
BRANCH  32  33
ATOM     33  N   UNL     1      30.339  10.151  -3.692  1.00  0.00    -0.315 NA
ATOM     34  H   UNL     1      30.517  11.012  -3.181  1.00  0.00     0.122 HD
BRANCH  33  35
ATOM     35  C   UNL     1      29.542  10.453  -4.875  1.00  0.00     0.085 C
ATOM     36  G   UNL     1      29.074   9.166  -5.490  1.00  0.00     0.000 C
ENDBRANCH  33  35
ENDBRANCH  32  33
ENDBRANCH  29  32
ENDBRANCH   7  29
TORSDOF 2
ENDMDL
MODEL 4
REMARK VINA RESULT:      -7.7      1.918      3.298
REMARK SMILES N#C[C@H]1CCN(C(=O)[C@@H]2NC(=O)c3c[nH]c4ncc(nc34)C3(CC3)CNC[C@@H]3C[C@H]32)C1
REMARK SMILES IDX 13 1 14 2 15 3 16 4 17 5 18 6 19 7 20 8 21 9 11 11 10 12
REMARK SMILES IDX 12 13 9 15 7 16 8 17 6 18 1 19 2 20 3 21 4 22 31 23 5 24
REMARK SMILES IDX 30 25 29 26 28 27 22 29 23 30 24 31 25 32 26 33 27 35
REMARK H PARENT 15 10 10 14 26 34
REMARK Flexibility Score:  106.900
ROOT
ATOM      1  C   UNL     1      31.621  10.026  -3.729  1.00  0.00     0.085 A
ATOM      2  C   UNL     1      32.360   9.325  -2.786  1.00  0.00     0.100 A
ATOM      3  N   UNL     1      32.090   7.981  -2.930  1.00  0.00    -0.344 N
ATOM      4  C   UNL     1      31.175   7.805  -3.928  1.00  0.00     0.156 A
ATOM      5  N   UNL     1      30.620   6.641  -4.319  1.00  0.00    -0.235 NA
ATOM      6  C   UNL     1      29.718   6.858  -5.324  1.00  0.00     0.138 A
ATOM      7  C   UNL     1      29.405   8.096  -5.913  1.00  0.00     0.067 A
ATOM      8  N   UNL     1      30.024   9.217  -5.479  1.00  0.00    -0.246 NA
ATOM      9  C   UNL     1      30.897   9.052  -4.460  1.00  0.00     0.120 A
ATOM     10  H   UNL     1      32.472   7.231  -2.372  1.00  0.00     0.168 HD
ENDROOT
BRANCH   1  11
ATOM     11  C   UNL     1      31.559  11.472  -3.885  1.00  0.00     0.255 C
ATOM     12  N   UNL     1      30.542  11.908  -4.699  1.00  0.00    -0.340 N
ATOM     13  O   UNL     1      32.326  12.235  -3.305  1.00  0.00    -0.269 OA
ATOM     14  H   UNL     1      29.950  11.219  -5.163  1.00  0.00     0.164 HD
BRANCH  12  15
ATOM     15  C   UNL     1      30.191  13.305  -4.826  1.00  0.00     0.175 C
BRANCH  15  16
ATOM     16  C   UNL     1      31.364  14.064  -5.508  1.00  0.00     0.245 C
ATOM     17  O   UNL     1      32.124  13.498  -6.301  1.00  0.00    -0.272 OA
BRANCH  16  18
ATOM     18  N   UNL     1      31.538  15.400  -5.201  1.00  0.00    -0.340 N
ATOM     19  N   UNL     1      32.867  19.690  -6.646  1.00  0.00    -0.198 NA
ATOM     20  C   UNL     1      32.757  18.716  -6.025  1.00  0.00     0.067 C
ATOM     21  C   UNL     1      32.614  17.495  -5.235  1.00  0.00     0.114 C
ATOM     22  C   UNL     1      31.434  17.553  -4.263  1.00  0.00     0.042 C
ATOM     23  C   UNL     1      32.266  16.286  -6.096  1.00  0.00     0.138 C
ATOM     24  C   UNL     1      31.149  16.085  -3.982  1.00  0.00     0.121 C
ENDBRANCH  16  18
ENDBRANCH  15  16
BRANCH  15  25
ATOM     25  C   UNL     1      28.927  13.413  -5.650  1.00  0.00     0.026 C
ATOM     26  C   UNL     1      28.609  14.679  -6.411  1.00  0.00     0.012 C
ATOM     27  C   UNL     1      27.773  14.305  -5.213  1.00  0.00     0.009 C
ATOM     28  G   UNL     1      26.356  13.846  -5.396  1.00  0.00     0.000 C
ENDBRANCH  15  25
ENDBRANCH  12  15
ENDBRANCH   1  11
BRANCH   7  29
ATOM     29  C   UNL     1      28.359   8.284  -7.025  1.00  0.00     0.027 C
ATOM     30  C   UNL     1      28.886   8.453  -8.449  1.00  0.00     0.016 C
ATOM     31  C   UNL     1      28.133   7.214  -8.089  1.00  0.00     0.016 C
BRANCH  29  32
ATOM     32  C   UNL     1      27.138   9.109  -6.595  1.00  0.00     0.094 C
BRANCH  32  33
ATOM     33  N   UNL     1      26.872   8.937  -5.163  1.00  0.00    -0.315 NA
ATOM     34  H   UNL     1      26.474   9.798  -4.798  1.00  0.00     0.122 HD
BRANCH  33  35
ATOM     35  C   UNL     1      25.960   7.834  -4.888  1.00  0.00     0.085 C
ATOM     36  G   UNL     1      25.143   7.557  -6.116  1.00  0.00     0.000 C
ENDBRANCH  33  35
ENDBRANCH  32  33
ENDBRANCH  29  32
ENDBRANCH   7  29
TORSDOF 2
ENDMDL
MODEL 5
REMARK VINA RESULT:      -7.6      1.956      3.501
REMARK SMILES N#C[C@H]1CCN(C(=O)[C@@H]2NC(=O)c3c[nH]c4ncc(nc34)C3(CC3)CNC[C@@H]3C[C@H]32)C1
REMARK SMILES IDX 13 1 14 2 15 3 16 4 17 5 18 6 19 7 20 8 21 9 11 11 10 12
REMARK SMILES IDX 12 13 9 15 7 16 8 17 6 18 1 19 2 20 3 21 4 22 31 23 5 24
REMARK SMILES IDX 30 25 29 26 28 27 22 29 23 30 24 31 25 32 26 33 27 35
REMARK H PARENT 15 10 10 14 26 34
REMARK Flexibility Score:  106.900
ROOT
ATOM      1  C   UNL     1      33.860  13.259  -2.968  1.00  0.00     0.085 A
ATOM      2  C   UNL     1      35.088  13.304  -2.321  1.00  0.00     0.100 A
ATOM      3  N   UNL     1      35.479  12.014  -2.034  1.00  0.00    -0.344 N
ATOM      4  C   UNL     1      34.518  11.141  -2.460  1.00  0.00     0.156 A
ATOM      5  N   UNL     1      34.514   9.804  -2.302  1.00  0.00    -0.235 NA
ATOM      6  C   UNL     1      33.370   9.267  -2.825  1.00  0.00     0.138 A
ATOM      7  C   UNL     1      32.336   9.969  -3.468  1.00  0.00     0.067 A
ATOM      8  N   UNL     1      32.426  11.310  -3.609  1.00  0.00    -0.246 NA
ATOM      9  C   UNL     1      33.525  11.887  -3.071  1.00  0.00     0.120 A
ATOM     10  H   UNL     1      36.323  11.737  -1.554  1.00  0.00     0.168 HD
ENDROOT
BRANCH   1  11
ATOM     11  C   UNL     1      33.058  14.397  -3.391  1.00  0.00     0.255 C
ATOM     12  N   UNL     1      32.201  14.129  -4.430  1.00  0.00    -0.340 N
ATOM     13  O   UNL     1      33.116  15.491  -2.836  1.00  0.00    -0.269 OA
ATOM     14  H   UNL     1      32.216  13.201  -4.856  1.00  0.00     0.164 HD
BRANCH  12  15
ATOM     15  C   UNL     1      31.188  15.064  -4.865  1.00  0.00     0.175 C
BRANCH  15  16
ATOM     16  C   UNL     1      31.855  16.173  -5.727  1.00  0.00     0.245 C
ATOM     17  O   UNL     1      32.697  15.899  -6.589  1.00  0.00    -0.272 OA
BRANCH  16  18
ATOM     18  N   UNL     1      31.479  17.482  -5.502  1.00  0.00    -0.340 N
ATOM     19  N   UNL     1      28.494  21.005  -6.472  1.00  0.00    -0.198 NA
ATOM     20  C   UNL     1      29.464  20.392  -6.302  1.00  0.00     0.067 C
ATOM     21  C   UNL     1      30.688  19.625  -6.078  1.00  0.00     0.114 C
ATOM     22  C   UNL     1      31.131  19.632  -4.613  1.00  0.00     0.042 C
ATOM     23  C   UNL     1      30.499  18.138  -6.354  1.00  0.00     0.138 C
ATOM     24  C   UNL     1      32.025  18.403  -4.521  1.00  0.00     0.121 C
ENDBRANCH  16  18
ENDBRANCH  15  16
BRANCH  15  25
ATOM     25  C   UNL     1      30.148  14.310  -5.665  1.00  0.00     0.026 C
ATOM     26  C   UNL     1      29.017  15.047  -6.345  1.00  0.00     0.012 C
ATOM     27  C   UNL     1      28.719  14.161  -5.161  1.00  0.00     0.009 C
ATOM     28  G   UNL     1      27.985  12.866  -5.353  1.00  0.00     0.000 C
ENDBRANCH  15  25
ENDBRANCH  12  15
ENDBRANCH   1  11
BRANCH   7  29
ATOM     29  C   UNL     1      31.057   9.312  -4.015  1.00  0.00     0.027 C
ATOM     30  C   UNL     1      29.745  10.069  -3.801  1.00  0.00     0.016 C
ATOM     31  C   UNL     1      30.291   9.923  -5.185  1.00  0.00     0.016 C
BRANCH  29  32
ATOM     32  C   UNL     1      31.045   7.782  -3.896  1.00  0.00     0.094 C
BRANCH  32  33
ATOM     33  N   UNL     1      30.394   7.176  -5.062  1.00  0.00    -0.315 NA
ATOM     34  H   UNL     1      31.102   6.974  -5.764  1.00  0.00     0.122 HD
BRANCH  33  35
ATOM     35  C   UNL     1      29.681   5.947  -4.735  1.00  0.00     0.085 C
ATOM     36  G   UNL     1      28.670   5.667  -5.808  1.00  0.00     0.000 C
ENDBRANCH  33  35
ENDBRANCH  32  33
ENDBRANCH  29  32
ENDBRANCH   7  29
TORSDOF 2
ENDMDL
MODEL 6
REMARK VINA RESULT:      -7.6      1.835      4.610
REMARK SMILES N#C[C@H]1CCN(C(=O)[C@@H]2NC(=O)c3c[nH]c4ncc(nc34)C3(CC3)CNC[C@@H]3C[C@H]32)C1
REMARK SMILES IDX 13 1 14 2 15 3 16 4 17 5 18 6 19 7 20 8 21 9 11 11 10 12
REMARK SMILES IDX 12 13 9 15 7 16 8 17 6 18 1 19 2 20 3 21 4 22 31 23 5 24
REMARK SMILES IDX 30 25 29 26 28 27 22 29 23 30 24 31 25 32 26 33 27 35
REMARK H PARENT 15 10 10 14 26 34
REMARK Flexibility Score:  106.900
ROOT
ATOM      1  C   UNL     1      28.615  10.864  -5.274  1.00  0.00     0.085 A
ATOM      2  C   UNL     1      27.776  10.030  -6.001  1.00  0.00     0.100 A
ATOM      3  N   UNL     1      28.250   8.740  -5.904  1.00  0.00    -0.344 N
ATOM      4  C   UNL     1      29.390   8.729  -5.150  1.00  0.00     0.156 A
ATOM      5  N   UNL     1      30.171   7.666  -4.883  1.00  0.00    -0.235 NA
ATOM      6  C   UNL     1      31.246   8.044  -4.127  1.00  0.00     0.138 A
ATOM      7  C   UNL     1      31.519   9.338  -3.651  1.00  0.00     0.067 A
ATOM      8  N   UNL     1      30.671  10.350  -3.943  1.00  0.00    -0.246 NA
ATOM      9  C   UNL     1      29.613  10.026  -4.721  1.00  0.00     0.120 A
ATOM     10  H   UNL     1      27.853   7.921  -6.341  1.00  0.00     0.168 HD
ENDROOT
BRANCH   1  11
ATOM     11  C   UNL     1      28.516  12.312  -5.162  1.00  0.00     0.255 C
ATOM     12  N   UNL     1      29.680  12.981  -5.454  1.00  0.00    -0.340 N
ATOM     13  O   UNL     1      27.470  12.885  -4.871  1.00  0.00    -0.269 OA
ATOM     14  H   UNL     1      30.518  12.442  -5.674  1.00  0.00     0.164 HD
BRANCH  12  15
ATOM     15  C   UNL     1      29.738  14.419  -5.591  1.00  0.00     0.175 C
BRANCH  15  16
ATOM     16  C   UNL     1      31.220  14.855  -5.766  1.00  0.00     0.245 C
ATOM     17  O   UNL     1      32.085  14.058  -6.145  1.00  0.00    -0.272 OA
BRANCH  16  18
ATOM     18  N   UNL     1      31.548  16.166  -5.482  1.00  0.00    -0.340 N
ATOM     19  N   UNL     1      33.884  20.063  -6.751  1.00  0.00    -0.198 NA
ATOM     20  C   UNL     1      33.473  19.172  -6.134  1.00  0.00     0.067 C
ATOM     21  C   UNL     1      32.948  18.055  -5.349  1.00  0.00     0.114 C
ATOM     22  C   UNL     1      31.609  18.377  -4.683  1.00  0.00     0.042 C
ATOM     23  C   UNL     1      32.599  16.852  -6.217  1.00  0.00     0.138 C
ATOM     24  C   UNL     1      31.021  16.999  -4.416  1.00  0.00     0.121 C
ENDBRANCH  16  18
ENDBRANCH  15  16
BRANCH  15  25
ATOM     25  C   UNL     1      28.911  14.824  -6.791  1.00  0.00     0.026 C
ATOM     26  C   UNL     1      28.939  16.246  -7.302  1.00  0.00     0.012 C
ATOM     27  C   UNL     1      27.688  15.719  -6.643  1.00  0.00     0.009 C
ATOM     28  G   UNL     1      26.459  15.455  -7.462  1.00  0.00     0.000 C
ENDBRANCH  15  25
ENDBRANCH  12  15
ENDBRANCH   1  11
BRANCH   7  29
ATOM     29  C   UNL     1      32.762   9.711  -2.824  1.00  0.00     0.027 C
ATOM     30  C   UNL     1      32.901   9.056  -1.450  1.00  0.00     0.016 C
ATOM     31  C   UNL     1      33.858   8.689  -2.538  1.00  0.00     0.016 C
BRANCH  29  32
ATOM     32  C   UNL     1      33.197  11.174  -2.983  1.00  0.00     0.094 C
BRANCH  32  33
ATOM     33  N   UNL     1      34.485  11.408  -2.320  1.00  0.00    -0.315 NA
ATOM     34  H   UNL     1      35.169  10.759  -2.698  1.00  0.00     0.122 HD
BRANCH  33  35
ATOM     35  C   UNL     1      34.970  12.771  -2.496  1.00  0.00     0.085 C
ATOM     36  G   UNL     1      33.814  13.660  -2.853  1.00  0.00     0.000 C
ENDBRANCH  33  35
ENDBRANCH  32  33
ENDBRANCH  29  32
ENDBRANCH   7  29
TORSDOF 2
ENDMDL
MODEL 7
REMARK VINA RESULT:      -7.6      1.827      3.622
REMARK SMILES N#C[C@H]1CCN(C(=O)[C@@H]2NC(=O)c3c[nH]c4ncc(nc34)C3(CC3)CNC[C@@H]3C[C@H]32)C1
REMARK SMILES IDX 13 1 14 2 15 3 16 4 17 5 18 6 19 7 20 8 21 9 11 11 10 12
REMARK SMILES IDX 12 13 9 15 7 16 8 17 6 18 1 19 2 20 3 21 4 22 31 23 5 24
REMARK SMILES IDX 30 25 29 26 28 27 22 29 23 30 24 31 25 32 26 33 27 35
REMARK H PARENT 15 10 10 14 26 34
REMARK Flexibility Score:  106.900
ROOT
ATOM      1  C   UNL     1      33.064  14.653  -3.171  1.00  0.00     0.085 A
ATOM      2  C   UNL     1      34.254  15.240  -2.759  1.00  0.00     0.100 A
ATOM      3  N   UNL     1      35.158  14.241  -2.473  1.00  0.00    -0.344 N
ATOM      4  C   UNL     1      34.569  13.023  -2.668  1.00  0.00     0.156 A
ATOM      5  N   UNL     1      35.116  11.815  -2.434  1.00  0.00    -0.235 NA
ATOM      6  C   UNL     1      34.215  10.824  -2.710  1.00  0.00     0.138 A
ATOM      7  C   UNL     1      32.907  10.996  -3.197  1.00  0.00     0.067 A
ATOM      8  N   UNL     1      32.440  12.243  -3.429  1.00  0.00    -0.246 NA
ATOM      9  C   UNL     1      33.287  13.254  -3.133  1.00  0.00     0.120 A
ATOM     10  H   UNL     1      36.102  14.366  -2.138  1.00  0.00     0.168 HD
ENDROOT
BRANCH   1  11
ATOM     11  C   UNL     1      31.827  15.340  -3.509  1.00  0.00     0.255 C
ATOM     12  N   UNL     1      31.363  15.078  -4.775  1.00  0.00    -0.340 N
ATOM     13  O   UNL     1      31.229  16.059  -2.712  1.00  0.00    -0.269 OA
ATOM     14  H   UNL     1      31.917  14.483  -5.391  1.00  0.00     0.164 HD
BRANCH  12  15
ATOM     15  C   UNL     1      30.059  15.505  -5.230  1.00  0.00     0.175 C
BRANCH  15  16
ATOM     16  C   UNL     1      30.230  16.663  -6.253  1.00  0.00     0.245 C
ATOM     17  O   UNL     1      29.748  16.595  -7.389  1.00  0.00    -0.272 OA
BRANCH  16  18
ATOM     18  N   UNL     1      30.943  17.778  -5.858  1.00  0.00    -0.340 N
ATOM     19  N   UNL     1      34.624  20.635  -6.598  1.00  0.00    -0.198 NA
ATOM     20  C   UNL     1      33.850  19.936  -6.089  1.00  0.00     0.067 C
ATOM     21  C   UNL     1      32.871  19.064  -5.442  1.00  0.00     0.114 C
ATOM     22  C   UNL     1      31.644  19.825  -4.937  1.00  0.00     0.042 C
ATOM     23  C   UNL     1      32.257  18.063  -6.412  1.00  0.00     0.138 C
ATOM     24  C   UNL     1      30.588  18.733  -4.825  1.00  0.00     0.121 C
ENDBRANCH  16  18
ENDBRANCH  15  16
BRANCH  15  25
ATOM     25  C   UNL     1      29.358  14.323  -5.865  1.00  0.00     0.026 C
ATOM     26  C   UNL     1      27.952  14.459  -6.401  1.00  0.00     0.012 C
ATOM     27  C   UNL     1      28.199  13.625  -5.168  1.00  0.00     0.009 C
ATOM     28  G   UNL     1      28.073  12.131  -5.230  1.00  0.00     0.000 C
ENDBRANCH  15  25
ENDBRANCH  12  15
ENDBRANCH   1  11
BRANCH   7  29
ATOM     29  C   UNL     1      31.927   9.841  -3.465  1.00  0.00     0.027 C
ATOM     30  C   UNL     1      32.412   8.430  -3.134  1.00  0.00     0.016 C
ATOM     31  C   UNL     1      31.316   9.038  -2.320  1.00  0.00     0.016 C
BRANCH  29  32
ATOM     32  C   UNL     1      31.060  10.041  -4.717  1.00  0.00     0.094 C
BRANCH  32  33
ATOM     33  N   UNL     1      29.814   9.274  -4.613  1.00  0.00    -0.315 NA
ATOM     34  H   UNL     1      29.047   9.919  -4.441  1.00  0.00     0.122 HD
BRANCH  33  35
ATOM     35  C   UNL     1      29.528   8.499  -5.814  1.00  0.00     0.085 C
ATOM     36  G   UNL     1      28.082   8.095  -5.802  1.00  0.00     0.000 C
ENDBRANCH  33  35
ENDBRANCH  32  33
ENDBRANCH  29  32
ENDBRANCH   7  29
TORSDOF 2
ENDMDL
MODEL 8
REMARK VINA RESULT:      -7.6      1.757      3.153
REMARK SMILES N#C[C@H]1CCN(C(=O)[C@@H]2NC(=O)c3c[nH]c4ncc(nc34)C3(CC3)CNC[C@@H]3C[C@H]32)C1
REMARK SMILES IDX 13 1 14 2 15 3 16 4 17 5 18 6 19 7 20 8 21 9 11 11 10 12
REMARK SMILES IDX 12 13 9 15 7 16 8 17 6 18 1 19 2 20 3 21 4 22 31 23 5 24
REMARK SMILES IDX 30 25 29 26 28 27 22 29 23 30 24 31 25 32 26 33 27 35
REMARK H PARENT 15 10 10 14 26 34
REMARK Flexibility Score:  106.900
ROOT
ATOM      1  C   UNL     1      34.132  13.067  -2.853  1.00  0.00     0.085 A
ATOM      2  C   UNL     1      35.326  12.954  -2.153  1.00  0.00     0.100 A
ATOM      3  N   UNL     1      35.532  11.627  -1.849  1.00  0.00    -0.344 N
ATOM      4  C   UNL     1      34.483  10.885  -2.316  1.00  0.00     0.156 A
ATOM      5  N   UNL     1      34.297   9.560  -2.158  1.00  0.00    -0.235 NA
ATOM      6  C   UNL     1      33.116   9.175  -2.730  1.00  0.00     0.138 A
ATOM      7  C   UNL     1      32.212  10.002  -3.419  1.00  0.00     0.067 A
ATOM      8  N   UNL     1      32.483  11.320  -3.555  1.00  0.00    -0.246 NA
ATOM      9  C   UNL     1      33.625  11.750  -2.971  1.00  0.00     0.120 A
ATOM     10  H   UNL     1      36.311  11.243  -1.333  1.00  0.00     0.168 HD
ENDROOT
BRANCH   1  11
ATOM     11  C   UNL     1      33.506  14.298  -3.311  1.00  0.00     0.255 C
ATOM     12  N   UNL     1      32.657  14.136  -4.378  1.00  0.00    -0.340 N
ATOM     13  O   UNL     1      33.691  15.381  -2.760  1.00  0.00    -0.269 OA
ATOM     14  H   UNL     1      32.561  13.211  -4.798  1.00  0.00     0.164 HD
BRANCH  12  15
ATOM     15  C   UNL     1      31.794  15.195  -4.854  1.00  0.00     0.175 C
BRANCH  15  16
ATOM     16  C   UNL     1      32.564  16.047  -5.902  1.00  0.00     0.245 C
ATOM     17  O   UNL     1      33.094  15.528  -6.890  1.00  0.00    -0.272 OA
BRANCH  16  18
ATOM     18  N   UNL     1      32.643  17.410  -5.697  1.00  0.00    -0.340 N
ATOM     19  N   UNL     1      30.848  21.248  -3.621  1.00  0.00    -0.198 NA
ATOM     20  C   UNL     1      31.271  20.514  -4.414  1.00  0.00     0.067 C
ATOM     21  C   UNL     1      31.814  19.597  -5.414  1.00  0.00     0.114 C
ATOM     22  C   UNL     1      33.341  19.647  -5.496  1.00  0.00     0.042 C
ATOM     23  C   UNL     1      31.555  18.137  -5.061  1.00  0.00     0.138 C
ATOM     24  C   UNL     1      33.693  18.311  -6.137  1.00  0.00     0.121 C
ENDBRANCH  16  18
ENDBRANCH  15  16
BRANCH  15  25
ATOM     25  C   UNL     1      30.559  14.571  -5.468  1.00  0.00     0.026 C
ATOM     26  C   UNL     1      29.568  15.417  -6.233  1.00  0.00     0.012 C
ATOM     27  C   UNL     1      29.173  14.838  -4.898  1.00  0.00     0.009 C
ATOM     28  G   UNL     1      28.163  13.731  -4.825  1.00  0.00     0.000 C
ENDBRANCH  15  25
ENDBRANCH  12  15
ENDBRANCH   1  11
BRANCH   7  29
ATOM     29  C   UNL     1      30.882   9.517  -4.020  1.00  0.00     0.027 C
ATOM     30  C   UNL     1      29.670  10.432  -3.849  1.00  0.00     0.016 C
ATOM     31  C   UNL     1      30.246  10.225  -5.212  1.00  0.00     0.016 C
BRANCH  29  32
ATOM     32  C   UNL     1      30.672   8.000  -3.917  1.00  0.00     0.094 C
BRANCH  32  33
ATOM     33  N   UNL     1      30.532   7.403  -5.249  1.00  0.00    -0.315 NA
ATOM     34  H   UNL     1      31.214   6.655  -5.345  1.00  0.00     0.122 HD
BRANCH  33  35
ATOM     35  C   UNL     1      29.198   6.868  -5.490  1.00  0.00     0.085 C
ATOM     36  G   UNL     1      29.120   5.476  -4.935  1.00  0.00     0.000 C
ENDBRANCH  33  35
ENDBRANCH  32  33
ENDBRANCH  29  32
ENDBRANCH   7  29
TORSDOF 2
ENDMDL
MODEL 9
REMARK VINA RESULT:      -7.5      1.809      3.809
REMARK SMILES N#C[C@H]1CCN(C(=O)[C@@H]2NC(=O)c3c[nH]c4ncc(nc34)C3(CC3)CNC[C@@H]3C[C@H]32)C1
REMARK SMILES IDX 13 1 14 2 15 3 16 4 17 5 18 6 19 7 20 8 21 9 11 11 10 12
REMARK SMILES IDX 12 13 9 15 7 16 8 17 6 18 1 19 2 20 3 21 4 22 31 23 5 24
REMARK SMILES IDX 30 25 29 26 28 27 22 29 23 30 24 31 25 32 26 33 27 35
REMARK H PARENT 15 10 10 14 26 34
REMARK Flexibility Score:  106.900
ROOT
ATOM      1  C   UNL     1      32.694  14.534  -3.358  1.00  0.00     0.085 A
ATOM      2  C   UNL     1      33.922  14.963  -2.873  1.00  0.00     0.100 A
ATOM      3  N   UNL     1      34.698  13.857  -2.606  1.00  0.00    -0.344 N
ATOM      4  C   UNL     1      33.988  12.723  -2.886  1.00  0.00     0.156 A
ATOM      5  N   UNL     1      34.388  11.452  -2.696  1.00  0.00    -0.235 NA
ATOM      6  C   UNL     1      33.396  10.582  -3.057  1.00  0.00     0.138 A
ATOM      7  C   UNL     1      32.137  10.923  -3.582  1.00  0.00     0.067 A
ATOM      8  N   UNL     1      31.819  12.224  -3.765  1.00  0.00    -0.246 NA
ATOM      9  C   UNL     1      32.759  13.119  -3.385  1.00  0.00     0.120 A
ATOM     10  H   UNL     1      35.636  13.859  -2.230  1.00  0.00     0.168 HD
ENDROOT
BRANCH   1  11
ATOM     11  C   UNL     1      31.555  15.371  -3.704  1.00  0.00     0.255 C
ATOM     12  N   UNL     1      30.972  15.061  -4.908  1.00  0.00    -0.340 N
ATOM     13  O   UNL     1      31.129  16.251  -2.960  1.00  0.00    -0.269 OA
ATOM     14  H   UNL     1      31.387  14.328  -5.484  1.00  0.00     0.164 HD
BRANCH  12  15
ATOM     15  C   UNL     1      29.720  15.641  -5.339  1.00  0.00     0.175 C
BRANCH  15  16
ATOM     16  C   UNL     1      30.010  16.787  -6.350  1.00  0.00     0.245 C
ATOM     17  O   UNL     1      29.696  16.690  -7.541  1.00  0.00    -0.272 OA
BRANCH  16  18
ATOM     18  N   UNL     1      30.635  17.924  -5.878  1.00  0.00    -0.340 N
ATOM     19  N   UNL     1      34.361  20.811  -6.085  1.00  0.00    -0.198 NA
ATOM     20  C   UNL     1      33.519  20.118  -5.690  1.00  0.00     0.067 C
ATOM     21  C   UNL     1      32.453  19.253  -5.187  1.00  0.00     0.114 C
ATOM     22  C   UNL     1      31.151  20.010  -4.923  1.00  0.00     0.042 C
ATOM     23  C   UNL     1      32.022  18.211  -6.213  1.00  0.00     0.138 C
ATOM     24  C   UNL     1      30.102  18.907  -4.953  1.00  0.00     0.121 C
ENDBRANCH  16  18
ENDBRANCH  15  16
BRANCH  15  25
ATOM     25  C   UNL     1      28.880  14.557  -5.980  1.00  0.00     0.026 C
ATOM     26  C   UNL     1      27.488  14.858  -6.484  1.00  0.00     0.012 C
ATOM     27  C   UNL     1      27.664  13.978  -5.271  1.00  0.00     0.009 C
ATOM     28  G   UNL     1      27.372  12.508  -5.356  1.00  0.00     0.000 C
ENDBRANCH  15  25
ENDBRANCH  12  15
ENDBRANCH   1  11
BRANCH   7  29
ATOM     29  C   UNL     1      31.047   9.900  -3.946  1.00  0.00     0.027 C
ATOM     30  C   UNL     1      29.600  10.389  -3.915  1.00  0.00     0.016 C
ATOM     31  C   UNL     1      30.227  10.038  -5.225  1.00  0.00     0.016 C
BRANCH  29  32
ATOM     32  C   UNL     1      31.347   8.475  -3.460  1.00  0.00     0.094 C
BRANCH  32  33
ATOM     33  N   UNL     1      31.255   7.518  -4.568  1.00  0.00    -0.315 NA
ATOM     34  H   UNL     1      32.172   7.106  -4.721  1.00  0.00     0.122 HD
BRANCH  33  35
ATOM     35  C   UNL     1      30.288   6.456  -4.317  1.00  0.00     0.085 C
ATOM     36  G   UNL     1      29.305   6.412  -5.450  1.00  0.00     0.000 C
ENDBRANCH  33  35
ENDBRANCH  32  33
ENDBRANCH  29  32
ENDBRANCH   7  29
TORSDOF 2
ENDMDL
