MODEL 1
REMARK VINA RESULT:      -8.2      0.000      0.000
REMARK SMILES N#C[C@H]1CCN(C(=O)[C@@H]2NC(=O)c3c[nH]c4ncc(nc34)[C@@H]3C[C@H]3COCC23CC3)C1
REMARK SMILES IDX 13 1 14 2 15 3 16 4 17 5 18 6 19 7 20 8 21 9 11 11 10 12
REMARK SMILES IDX 12 13 9 15 7 16 8 17 6 18 1 19 2 20 3 21 4 22 31 23 5 24
REMARK SMILES IDX 28 25 29 26 30 27 22 29 23 30 24 31 25 32 26 33 27 34
REMARK H PARENT 15 10 10 14
REMARK Flexibility Score:  106.900
ROOT
ATOM      1  C   UNL     1      33.590  13.146  -2.569  1.00  0.00     0.085 A
ATOM      2  C   UNL     1      34.944  13.376  -2.371  1.00  0.00     0.100 A
ATOM      3  N   UNL     1      35.596  12.155  -2.343  1.00  0.00    -0.344 N
ATOM      4  C   UNL     1      34.694  11.141  -2.524  1.00  0.00     0.156 A
ATOM      5  N   UNL     1      34.926   9.812  -2.601  1.00  0.00    -0.235 NA
ATOM      6  C   UNL     1      33.758   9.128  -2.832  1.00  0.00     0.137 A
ATOM      7  C   UNL     1      32.485   9.699  -2.948  1.00  0.00     0.063 A
ATOM      8  N   UNL     1      32.328  11.027  -2.817  1.00  0.00    -0.247 NA
ATOM      9  C   UNL     1      33.455  11.740  -2.634  1.00  0.00     0.120 A
ATOM     10  H   UNL     1      36.591  12.013  -2.232  1.00  0.00     0.168 HD
ENDROOT
BRANCH   1  11
ATOM     11  C   UNL     1      32.497  14.108  -2.720  1.00  0.00     0.255 C
ATOM     12  N   UNL     1      31.935  14.077  -3.973  1.00  0.00    -0.339 N
ATOM     13  O   UNL     1      32.140  14.872  -1.829  1.00  0.00    -0.269 OA
ATOM     14  H   UNL     1      32.424  13.518  -4.670  1.00  0.00     0.164 HD
BRANCH  12  15
ATOM     15  C   UNL     1      30.974  15.013  -4.511  1.00  0.00     0.180 C
BRANCH  15  16
ATOM     16  C   UNL     1      31.741  15.879  -5.548  1.00  0.00     0.245 C
ATOM     17  O   UNL     1      32.536  15.385  -6.353  1.00  0.00    -0.272 OA
BRANCH  16  18
ATOM     18  N   UNL     1      31.530  17.246  -5.531  1.00  0.00    -0.340 N
ATOM     19  N   UNL     1      33.946  20.462  -5.546  1.00  0.00    -0.198 NA
ATOM     20  C   UNL     1      32.935  20.018  -5.188  1.00  0.00     0.067 C
ATOM     21  C   UNL     1      31.639  19.477  -4.749  1.00  0.00     0.114 C
ATOM     22  C   UNL     1      30.648  19.397  -5.913  1.00  0.00     0.042 C
ATOM     23  C   UNL     1      31.765  18.018  -4.322  1.00  0.00     0.138 C
ATOM     24  C   UNL     1      30.988  18.075  -6.595  1.00  0.00     0.121 C
ENDBRANCH  16  18
ENDBRANCH  15  16
BRANCH  15  25
ATOM     25  C   UNL     1      29.759  14.275  -5.111  1.00  0.00     0.023 C
ATOM     26  C   UNL     1      28.401  14.934  -4.898  1.00  0.00     0.013 C
ATOM     27  C   UNL     1      29.022  14.947  -6.260  1.00  0.00     0.013 C
ATOM     28  G   UNL     1      29.763  12.745  -5.110  1.00  0.00     0.000 C
ENDBRANCH  15  25
ENDBRANCH  12  15
ENDBRANCH   1  11
BRANCH   7  29
ATOM     29  C   UNL     1      31.199   8.958  -3.210  1.00  0.00     0.045 C
ATOM     30  C   UNL     1      31.084   7.631  -3.908  1.00  0.00     0.017 C
ATOM     31  C   UNL     1      30.816   8.887  -4.696  1.00  0.00     0.025 C
BRANCH  31  32
ATOM     32  C   UNL     1      29.461   9.320  -5.152  1.00  0.00     0.164 C
BRANCH  32  33
ATOM     33  O   UNL     1      29.243   8.902  -6.507  1.00  0.00    -0.380 OA
BRANCH  33  34
ATOM     34  C   UNL     1      27.959   8.330  -6.727  1.00  0.00     0.169 C
ATOM     35  G   UNL     1      27.754   7.110  -5.827  1.00  0.00     0.000 C
ENDBRANCH  33  34
ENDBRANCH  32  33
ENDBRANCH  31  32
ENDBRANCH   7  29
TORSDOF 2
ENDMDL
MODEL 2
REMARK VINA RESULT:      -8.0      1.045      1.330
REMARK SMILES N#C[C@H]1CCN(C(=O)[C@@H]2NC(=O)c3c[nH]c4ncc(nc34)[C@@H]3C[C@H]3COCC23CC3)C1
REMARK SMILES IDX 13 1 14 2 15 3 16 4 17 5 18 6 19 7 20 8 21 9 11 11 10 12
REMARK SMILES IDX 12 13 9 15 7 16 8 17 6 18 1 19 2 20 3 21 4 22 31 23 5 24
REMARK SMILES IDX 28 25 29 26 30 27 22 29 23 30 24 31 25 32 26 33 27 34
REMARK H PARENT 15 10 10 14
REMARK Flexibility Score:  106.900
ROOT
ATOM      1  C   UNL     1      34.081  12.902  -2.494  1.00  0.00     0.085 A
ATOM      2  C   UNL     1      35.405  12.919  -2.079  1.00  0.00     0.100 A
ATOM      3  N   UNL     1      35.812  11.615  -1.852  1.00  0.00    -0.344 N
ATOM      4  C   UNL     1      34.781  10.754  -2.118  1.00  0.00     0.156 A
ATOM      5  N   UNL     1      34.777   9.404  -2.061  1.00  0.00    -0.235 NA
ATOM      6  C   UNL     1      33.556   8.906  -2.444  1.00  0.00     0.137 A
ATOM      7  C   UNL     1      32.444   9.668  -2.821  1.00  0.00     0.063 A
ATOM      8  N   UNL     1      32.511  11.010  -2.812  1.00  0.00    -0.247 NA
ATOM      9  C   UNL     1      33.706  11.539  -2.484  1.00  0.00     0.120 A
ATOM     10  H   UNL     1      36.733  11.320  -1.559  1.00  0.00     0.168 HD
ENDROOT
BRANCH   1  11
ATOM     11  C   UNL     1      33.220  14.013  -2.900  1.00  0.00     0.255 C
ATOM     12  N   UNL     1      32.158  13.605  -3.670  1.00  0.00    -0.339 N
ATOM     13  O   UNL     1      33.440  15.182  -2.604  1.00  0.00    -0.269 OA
ATOM     14  H   UNL     1      32.176  12.636  -3.981  1.00  0.00     0.164 HD
BRANCH  12  15
ATOM     15  C   UNL     1      31.233  14.454  -4.385  1.00  0.00     0.180 C
BRANCH  15  16
ATOM     16  C   UNL     1      31.920  14.811  -5.732  1.00  0.00     0.245 C
ATOM     17  O   UNL     1      32.327  13.942  -6.509  1.00  0.00    -0.272 OA
BRANCH  16  18
ATOM     18  N   UNL     1      32.093  16.149  -6.035  1.00  0.00    -0.340 N
ATOM     19  N   UNL     1      31.311  19.589  -4.103  1.00  0.00    -0.198 NA
ATOM     20  C   UNL     1      31.385  19.058  -5.132  1.00  0.00     0.067 C
ATOM     21  C   UNL     1      31.500  18.403  -6.444  1.00  0.00     0.114 C
ATOM     22  C   UNL     1      32.965  18.187  -6.831  1.00  0.00     0.042 C
ATOM     23  C   UNL     1      30.956  16.979  -6.402  1.00  0.00     0.138 C
ATOM     24  C   UNL     1      33.342  16.885  -6.130  1.00  0.00     0.121 C
ENDBRANCH  16  18
ENDBRANCH  15  16
BRANCH  15  25
ATOM     25  C   UNL     1      29.866  13.759  -4.561  1.00  0.00     0.023 C
ATOM     26  C   UNL     1      28.655  14.679  -4.667  1.00  0.00     0.013 C
ATOM     27  C   UNL     1      29.141  13.955  -5.884  1.00  0.00     0.013 C
ATOM     28  G   UNL     1      29.629  12.427  -3.848  1.00  0.00     0.000 C
ENDBRANCH  15  25
ENDBRANCH  12  15
ENDBRANCH   1  11
BRANCH   7  29
ATOM     29  C   UNL     1      31.103   9.130  -3.253  1.00  0.00     0.045 C
ATOM     30  C   UNL     1      30.855   7.761  -3.822  1.00  0.00     0.017 C
ATOM     31  C   UNL     1      30.976   8.926  -4.769  1.00  0.00     0.025 C
BRANCH  31  32
ATOM     32  C   UNL     1      29.830   9.520  -5.523  1.00  0.00     0.164 C
BRANCH  32  33
ATOM     33  O   UNL     1      29.383   8.608  -6.534  1.00  0.00    -0.380 OA
BRANCH  33  34
ATOM     34  C   UNL     1      27.984   8.351  -6.490  1.00  0.00     0.169 C
ATOM     35  G   UNL     1      27.323   9.167  -5.377  1.00  0.00     0.000 C
ENDBRANCH  33  34
ENDBRANCH  32  33
ENDBRANCH  31  32
ENDBRANCH   7  29
TORSDOF 2
ENDMDL
MODEL 3
REMARK VINA RESULT:      -7.9      2.184      3.896
REMARK SMILES N#C[C@H]1CCN(C(=O)[C@@H]2NC(=O)c3c[nH]c4ncc(nc34)[C@@H]3C[C@H]3COCC23CC3)C1
REMARK SMILES IDX 13 1 14 2 15 3 16 4 17 5 18 6 19 7 20 8 21 9 11 11 10 12
REMARK SMILES IDX 12 13 9 15 7 16 8 17 6 18 1 19 2 20 3 21 4 22 31 23 5 24
REMARK SMILES IDX 28 25 29 26 30 27 22 29 23 30 24 31 25 32 26 33 27 34
REMARK H PARENT 15 10 10 14
REMARK Flexibility Score:  106.900
ROOT
ATOM      1  C   UNL     1      34.149  12.665  -2.708  1.00  0.00     0.085 A
ATOM      2  C   UNL     1      35.437  12.717  -2.195  1.00  0.00     0.100 A
ATOM      3  N   UNL     1      35.793  11.446  -1.774  1.00  0.00    -0.344 N
ATOM      4  C   UNL     1      34.765  10.573  -2.012  1.00  0.00     0.156 A
ATOM      5  N   UNL     1      34.724   9.242  -1.786  1.00  0.00    -0.235 NA
ATOM      6  C   UNL     1      33.525   8.716  -2.201  1.00  0.00     0.137 A
ATOM      7  C   UNL     1      32.464   9.440  -2.757  1.00  0.00     0.063 A
ATOM      8  N   UNL     1      32.563  10.771  -2.911  1.00  0.00    -0.247 NA
ATOM      9  C   UNL     1      33.741  11.320  -2.558  1.00  0.00     0.120 A
ATOM     10  H   UNL     1      36.681  11.178  -1.374  1.00  0.00     0.168 HD
ENDROOT
BRANCH   1  11
ATOM     11  C   UNL     1      33.349  13.728  -3.318  1.00  0.00     0.255 C
ATOM     12  N   UNL     1      32.005  13.441  -3.325  1.00  0.00    -0.339 N
ATOM     13  O   UNL     1      33.832  14.751  -3.791  1.00  0.00    -0.269 OA
ATOM     14  H   UNL     1      31.748  12.494  -3.054  1.00  0.00     0.164 HD
BRANCH  12  15
ATOM     15  C   UNL     1      30.969  14.178  -4.012  1.00  0.00     0.180 C
BRANCH  15  16
ATOM     16  C   UNL     1      29.738  13.234  -4.087  1.00  0.00     0.245 C
ATOM     17  O   UNL     1      29.559  12.325  -3.270  1.00  0.00    -0.272 OA
BRANCH  16  18
ATOM     18  N   UNL     1      28.842  13.421  -5.123  1.00  0.00    -0.340 N
ATOM     19  N   UNL     1      24.982  14.532  -5.333  1.00  0.00    -0.198 NA
ATOM     20  C   UNL     1      25.827  13.893  -5.806  1.00  0.00     0.067 C
ATOM     21  C   UNL     1      26.896  13.098  -6.431  1.00  0.00     0.114 C
ATOM     22  C   UNL     1      27.877  13.990  -7.195  1.00  0.00     0.042 C
ATOM     23  C   UNL     1      27.790  12.449  -5.379  1.00  0.00     0.138 C
ATOM     24  C   UNL     1      28.845  14.477  -6.121  1.00  0.00     0.121 C
ENDBRANCH  16  18
ENDBRANCH  15  16
BRANCH  15  25
ATOM     25  C   UNL     1      30.673  15.513  -3.296  1.00  0.00     0.023 C
ATOM     26  C   UNL     1      31.132  16.776  -4.016  1.00  0.00     0.013 C
ATOM     27  C   UNL     1      29.671  16.455  -3.946  1.00  0.00     0.013 C
ATOM     28  G   UNL     1      30.751  15.553  -1.768  1.00  0.00     0.000 C
ENDBRANCH  15  25
ENDBRANCH  12  15
ENDBRANCH   1  11
BRANCH   7  29
ATOM     29  C   UNL     1      31.148   8.871  -3.224  1.00  0.00     0.045 C
ATOM     30  C   UNL     1      30.975   7.592  -3.995  1.00  0.00     0.017 C
ATOM     31  C   UNL     1      30.967   8.897  -4.748  1.00  0.00     0.025 C
BRANCH  31  32
ATOM     32  C   UNL     1      29.747   9.508  -5.358  1.00  0.00     0.164 C
BRANCH  32  33
ATOM     33  O   UNL     1      29.447   8.865  -6.605  1.00  0.00    -0.380 OA
BRANCH  33  34
ATOM     34  C   UNL     1      28.067   8.563  -6.772  1.00  0.00     0.169 C
ATOM     35  G   UNL     1      27.292   8.864  -5.488  1.00  0.00     0.000 C
ENDBRANCH  33  34
ENDBRANCH  32  33
ENDBRANCH  31  32
ENDBRANCH   7  29
TORSDOF 2
ENDMDL
MODEL 4
REMARK VINA RESULT:      -7.9      2.922      5.344
REMARK SMILES N#C[C@H]1CCN(C(=O)[C@@H]2NC(=O)c3c[nH]c4ncc(nc34)[C@@H]3C[C@H]3COCC23CC3)C1
REMARK SMILES IDX 13 1 14 2 15 3 16 4 17 5 18 6 19 7 20 8 21 9 11 11 10 12
REMARK SMILES IDX 12 13 9 15 7 16 8 17 6 18 1 19 2 20 3 21 4 22 31 23 5 24
REMARK SMILES IDX 28 25 29 26 30 27 22 29 23 30 24 31 25 32 26 33 27 34
REMARK H PARENT 15 10 10 14
REMARK Flexibility Score:  106.900
ROOT
ATOM      1  C   UNL     1      28.156  14.287  -6.245  1.00  0.00     0.085 A
ATOM      2  C   UNL     1      26.807  13.977  -6.155  1.00  0.00     0.100 A
ATOM      3  N   UNL     1      26.679  12.754  -5.518  1.00  0.00    -0.344 N
ATOM      4  C   UNL     1      27.917  12.270  -5.187  1.00  0.00     0.156 A
ATOM      5  N   UNL     1      28.226  11.135  -4.525  1.00  0.00    -0.235 NA
ATOM      6  C   UNL     1      29.584  11.027  -4.354  1.00  0.00     0.137 A
ATOM      7  C   UNL     1      30.541  11.939  -4.815  1.00  0.00     0.063 A
ATOM      8  N   UNL     1      30.158  13.026  -5.506  1.00  0.00    -0.247 NA
ATOM      9  C   UNL     1      28.830  13.192  -5.657  1.00  0.00     0.120 A
ATOM     10  H   UNL     1      25.812  12.285  -5.298  1.00  0.00     0.168 HD
ENDROOT
BRANCH   1  11
ATOM     11  C   UNL     1      28.800  15.485  -6.786  1.00  0.00     0.255 C
ATOM     12  N   UNL     1      29.976  15.789  -6.144  1.00  0.00    -0.339 N
ATOM     13  O   UNL     1      28.326  16.155  -7.697  1.00  0.00    -0.269 OA
ATOM     14  H   UNL     1      30.178  15.254  -5.301  1.00  0.00     0.164 HD
BRANCH  12  15
ATOM     15  C   UNL     1      30.757  16.995  -6.298  1.00  0.00     0.180 C
BRANCH  15  16
ATOM     16  C   UNL     1      30.292  17.964  -5.177  1.00  0.00     0.245 C
ATOM     17  O   UNL     1      29.625  17.577  -4.213  1.00  0.00    -0.272 OA
BRANCH  16  18
ATOM     18  N   UNL     1      30.625  19.300  -5.299  1.00  0.00    -0.340 N
ATOM     19  N   UNL     1      34.094  21.335  -5.363  1.00  0.00    -0.198 NA
ATOM     20  C   UNL     1      32.972  21.353  -5.065  1.00  0.00     0.067 C
ATOM     21  C   UNL     1      31.546  21.398  -4.706  1.00  0.00     0.114 C
ATOM     22  C   UNL     1      30.666  21.565  -5.947  1.00  0.00     0.042 C
ATOM     23  C   UNL     1      31.075  20.061  -4.144  1.00  0.00     0.138 C
ATOM     24  C   UNL     1      30.504  20.143  -6.477  1.00  0.00     0.121 C
ENDBRANCH  16  18
ENDBRANCH  15  16
BRANCH  15  25
ATOM     25  C   UNL     1      32.269  16.685  -6.250  1.00  0.00     0.023 C
ATOM     26  C   UNL     1      33.168  17.601  -7.072  1.00  0.00     0.013 C
ATOM     27  C   UNL     1      33.177  17.704  -5.579  1.00  0.00     0.013 C
ATOM     28  G   UNL     1      32.710  15.222  -6.164  1.00  0.00     0.000 C
ENDBRANCH  15  25
ENDBRANCH  12  15
ENDBRANCH   1  11
BRANCH   7  29
ATOM     29  C   UNL     1      32.033  11.835  -4.624  1.00  0.00     0.045 C
ATOM     30  C   UNL     1      32.735  10.793  -3.798  1.00  0.00     0.017 C
ATOM     31  C   UNL     1      32.498  12.153  -3.196  1.00  0.00     0.025 C
BRANCH  31  32
ATOM     32  C   UNL     1      33.571  13.164  -2.954  1.00  0.00     0.164 C
BRANCH  32  33
ATOM     33  O   UNL     1      33.021  14.488  -3.009  1.00  0.00    -0.380 OA
BRANCH  33  34
ATOM     34  C   UNL     1      32.106  14.767  -1.956  1.00  0.00     0.169 C
ATOM     35  G   UNL     1      30.711  15.053  -2.518  1.00  0.00     0.000 C
ENDBRANCH  33  34
ENDBRANCH  32  33
ENDBRANCH  31  32
ENDBRANCH   7  29
TORSDOF 2
ENDMDL
MODEL 5
REMARK VINA RESULT:      -7.8      0.843      1.376
REMARK SMILES N#C[C@H]1CCN(C(=O)[C@@H]2NC(=O)c3c[nH]c4ncc(nc34)[C@@H]3C[C@H]3COCC23CC3)C1
REMARK SMILES IDX 13 1 14 2 15 3 16 4 17 5 18 6 19 7 20 8 21 9 11 11 10 12
REMARK SMILES IDX 12 13 9 15 7 16 8 17 6 18 1 19 2 20 3 21 4 22 31 23 5 24
REMARK SMILES IDX 28 25 29 26 30 27 22 29 23 30 24 31 25 32 26 33 27 34
REMARK H PARENT 15 10 10 14
REMARK Flexibility Score:  106.900
ROOT
ATOM      1  C   UNL     1      33.664  13.152  -2.567  1.00  0.00     0.085 A
ATOM      2  C   UNL     1      35.023  13.356  -2.375  1.00  0.00     0.100 A
ATOM      3  N   UNL     1      35.651  12.122  -2.342  1.00  0.00    -0.344 N
ATOM      4  C   UNL     1      34.727  11.125  -2.516  1.00  0.00     0.156 A
ATOM      5  N   UNL     1      34.933   9.792  -2.586  1.00  0.00    -0.235 NA
ATOM      6  C   UNL     1      33.750   9.130  -2.809  1.00  0.00     0.137 A
ATOM      7  C   UNL     1      32.489   9.726  -2.924  1.00  0.00     0.063 A
ATOM      8  N   UNL     1      32.359  11.057  -2.800  1.00  0.00    -0.247 NA
ATOM      9  C   UNL     1      33.501  11.749  -2.624  1.00  0.00     0.120 A
ATOM     10  H   UNL     1      36.642  11.960  -2.233  1.00  0.00     0.168 HD
ENDROOT
BRANCH   1  11
ATOM     11  C   UNL     1      32.590  14.135  -2.720  1.00  0.00     0.255 C
ATOM     12  N   UNL     1      31.963  14.047  -3.939  1.00  0.00    -0.339 N
ATOM     13  O   UNL     1      32.301  14.960  -1.860  1.00  0.00    -0.269 OA
ATOM     14  H   UNL     1      32.399  13.435  -4.625  1.00  0.00     0.164 HD
BRANCH  12  15
ATOM     15  C   UNL     1      31.000  14.978  -4.483  1.00  0.00     0.180 C
BRANCH  15  16
ATOM     16  C   UNL     1      31.778  15.880  -5.479  1.00  0.00     0.245 C
ATOM     17  O   UNL     1      32.543  15.411  -6.328  1.00  0.00    -0.272 OA
BRANCH  16  18
ATOM     18  N   UNL     1      31.614  17.249  -5.375  1.00  0.00    -0.340 N
ATOM     19  N   UNL     1      28.556  19.770  -6.062  1.00  0.00    -0.198 NA
ATOM     20  C   UNL     1      29.707  19.627  -6.074  1.00  0.00     0.067 C
ATOM     21  C   UNL     1      31.170  19.468  -6.069  1.00  0.00     0.114 C
ATOM     22  C   UNL     1      31.726  19.485  -4.643  1.00  0.00     0.042 C
ATOM     23  C   UNL     1      31.577  18.085  -6.565  1.00  0.00     0.138 C
ATOM     24  C   UNL     1      31.551  18.048  -4.162  1.00  0.00     0.121 C
ENDBRANCH  16  18
ENDBRANCH  15  16
BRANCH  15  25
ATOM     25  C   UNL     1      29.815  14.231  -5.133  1.00  0.00     0.023 C
ATOM     26  C   UNL     1      28.428  14.790  -4.838  1.00  0.00     0.013 C
ATOM     27  C   UNL     1      29.020  14.965  -6.202  1.00  0.00     0.013 C
ATOM     28  G   UNL     1      29.902  12.710  -5.275  1.00  0.00     0.000 C
ENDBRANCH  15  25
ENDBRANCH  12  15
ENDBRANCH   1  11
BRANCH   7  29
ATOM     29  C   UNL     1      31.187   9.009  -3.179  1.00  0.00     0.045 C
ATOM     30  C   UNL     1      31.043   7.683  -3.873  1.00  0.00     0.017 C
ATOM     31  C   UNL     1      30.797   8.943  -4.662  1.00  0.00     0.025 C
BRANCH  31  32
ATOM     32  C   UNL     1      29.448   9.401  -5.114  1.00  0.00     0.164 C
BRANCH  32  33
ATOM     33  O   UNL     1      28.694   8.288  -5.615  1.00  0.00    -0.380 OA
BRANCH  33  34
ATOM     34  C   UNL     1      27.929   8.596  -6.775  1.00  0.00     0.169 C
ATOM     35  G   UNL     1      27.803   7.367  -7.677  1.00  0.00     0.000 C
ENDBRANCH  33  34
ENDBRANCH  32  33
ENDBRANCH  31  32
ENDBRANCH   7  29
TORSDOF 2
ENDMDL
MODEL 6
REMARK VINA RESULT:      -7.8      1.936      3.821
REMARK SMILES N#C[C@H]1CCN(C(=O)[C@@H]2NC(=O)c3c[nH]c4ncc(nc34)[C@@H]3C[C@H]3COCC23CC3)C1
REMARK SMILES IDX 13 1 14 2 15 3 16 4 17 5 18 6 19 7 20 8 21 9 11 11 10 12
REMARK SMILES IDX 12 13 9 15 7 16 8 17 6 18 1 19 2 20 3 21 4 22 31 23 5 24
REMARK SMILES IDX 28 25 29 26 30 27 22 29 23 30 24 31 25 32 26 33 27 34
REMARK H PARENT 15 10 10 14
REMARK Flexibility Score:  106.900
ROOT
ATOM      1  C   UNL     1      33.314  12.799  -3.718  1.00  0.00     0.085 A
ATOM      2  C   UNL     1      34.487  13.218  -3.106  1.00  0.00     0.100 A
ATOM      3  N   UNL     1      34.942  12.200  -2.285  1.00  0.00    -0.344 N
ATOM      4  C   UNL     1      34.091  11.129  -2.358  1.00  0.00     0.156 A
ATOM      5  N   UNL     1      34.196   9.930  -1.746  1.00  0.00    -0.235 NA
ATOM      6  C   UNL     1      33.158   9.107  -2.110  1.00  0.00     0.137 A
ATOM      7  C   UNL     1      32.109   9.447  -2.972  1.00  0.00     0.063 A
ATOM      8  N   UNL     1      32.050  10.677  -3.510  1.00  0.00    -0.247 NA
ATOM      9  C   UNL     1      33.073  11.501  -3.213  1.00  0.00     0.120 A
ATOM     10  H   UNL     1      35.784  12.215  -1.728  1.00  0.00     0.168 HD
ENDROOT
BRANCH   1  11
ATOM     11  C   UNL     1      32.483  13.491  -4.705  1.00  0.00     0.255 C
ATOM     12  N   UNL     1      32.252  14.804  -4.374  1.00  0.00    -0.339 N
ATOM     13  O   UNL     1      32.025  12.946  -5.704  1.00  0.00    -0.269 OA
ATOM     14  H   UNL     1      32.548  15.090  -3.443  1.00  0.00     0.164 HD
BRANCH  12  15
ATOM     15  C   UNL     1      31.328  15.707  -5.022  1.00  0.00     0.180 C
BRANCH  15  16
ATOM     16  C   UNL     1      30.054  15.742  -4.134  1.00  0.00     0.245 C
ATOM     17  O   UNL     1      30.096  15.511  -2.921  1.00  0.00    -0.272 OA
BRANCH  16  18
ATOM     18  N   UNL     1      28.846  16.016  -4.747  1.00  0.00    -0.340 N
ATOM     19  N   UNL     1      25.118  14.548  -4.388  1.00  0.00    -0.198 NA
ATOM     20  C   UNL     1      25.906  15.012  -5.103  1.00  0.00     0.067 C
ATOM     21  C   UNL     1      26.886  15.622  -6.014  1.00  0.00     0.114 C
ATOM     22  C   UNL     1      27.027  17.124  -5.753  1.00  0.00     0.042 C
ATOM     23  C   UNL     1      28.294  15.106  -5.739  1.00  0.00     0.138 C
ATOM     24  C   UNL     1      28.024  17.205  -4.601  1.00  0.00     0.121 C
ENDBRANCH  16  18
ENDBRANCH  15  16
BRANCH  15  25
ATOM     25  C   UNL     1      31.967  17.097  -5.228  1.00  0.00     0.023 C
ATOM     26  C   UNL     1      33.435  17.106  -5.639  1.00  0.00     0.013 C
ATOM     27  C   UNL     1      32.386  17.478  -6.640  1.00  0.00     0.013 C
ATOM     28  G   UNL     1      31.525  18.245  -4.318  1.00  0.00     0.000 C
ENDBRANCH  15  25
ENDBRANCH  12  15
ENDBRANCH   1  11
BRANCH   7  29
ATOM     29  C   UNL     1      30.972   8.548  -3.385  1.00  0.00     0.045 C
ATOM     30  C   UNL     1      31.107   7.280  -4.181  1.00  0.00     0.017 C
ATOM     31  C   UNL     1      30.704   8.543  -4.897  1.00  0.00     0.025 C
BRANCH  31  32
ATOM     32  C   UNL     1      29.331   8.807  -5.427  1.00  0.00     0.164 C
BRANCH  32  33
ATOM     33  O   UNL     1      29.208  10.185  -5.804  1.00  0.00    -0.380 OA
BRANCH  33  34
ATOM     34  C   UNL     1      28.281  10.913  -5.007  1.00  0.00     0.169 C
ATOM     35  G   UNL     1      28.999  12.003  -4.208  1.00  0.00     0.000 C
ENDBRANCH  33  34
ENDBRANCH  32  33
ENDBRANCH  31  32
ENDBRANCH   7  29
TORSDOF 2
ENDMDL
MODEL 7
REMARK VINA RESULT:      -7.7      1.989      3.135
REMARK SMILES N#C[C@H]1CCN(C(=O)[C@@H]2NC(=O)c3c[nH]c4ncc(nc34)[C@@H]3C[C@H]3COCC23CC3)C1
REMARK SMILES IDX 13 1 14 2 15 3 16 4 17 5 18 6 19 7 20 8 21 9 11 11 10 12
REMARK SMILES IDX 12 13 9 15 7 16 8 17 6 18 1 19 2 20 3 21 4 22 31 23 5 24
REMARK SMILES IDX 28 25 29 26 30 27 22 29 23 30 24 31 25 32 26 33 27 34
REMARK H PARENT 15 10 10 14
REMARK Flexibility Score:  106.900
ROOT
ATOM      1  C   UNL     1      33.150  10.622  -2.856  1.00  0.00     0.085 A
ATOM      2  C   UNL     1      33.902   9.641  -2.226  1.00  0.00     0.100 A
ATOM      3  N   UNL     1      33.320   8.410  -2.480  1.00  0.00    -0.344 N
ATOM      4  C   UNL     1      32.212   8.574  -3.268  1.00  0.00     0.156 A
ATOM      5  N   UNL     1      31.391   7.627  -3.772  1.00  0.00    -0.235 NA
ATOM      6  C   UNL     1      30.414   8.196  -4.552  1.00  0.00     0.137 A
ATOM      7  C   UNL     1      30.252   9.566  -4.788  1.00  0.00     0.063 A
ATOM      8  N   UNL     1      31.084  10.452  -4.216  1.00  0.00    -0.247 NA
ATOM      9  C   UNL     1      32.084   9.932  -3.478  1.00  0.00     0.120 A
ATOM     10  H   UNL     1      33.660   7.513  -2.164  1.00  0.00     0.168 HD
ENDROOT
BRANCH   1  11
ATOM     11  C   UNL     1      33.379  12.065  -2.927  1.00  0.00     0.255 C
ATOM     12  N   UNL     1      32.226  12.772  -3.170  1.00  0.00    -0.339 N
ATOM     13  O   UNL     1      34.485  12.581  -2.807  1.00  0.00    -0.269 OA
ATOM     14  H   UNL     1      31.405  12.221  -3.412  1.00  0.00     0.164 HD
BRANCH  12  15
ATOM     15  C   UNL     1      32.127  14.179  -3.484  1.00  0.00     0.180 C
BRANCH  15  16
ATOM     16  C   UNL     1      32.051  14.278  -5.032  1.00  0.00     0.245 C
ATOM     17  O   UNL     1      32.147  13.283  -5.756  1.00  0.00    -0.272 OA
BRANCH  16  18
ATOM     18  N   UNL     1      31.895  15.532  -5.593  1.00  0.00    -0.340 N
ATOM     19  N   UNL     1      29.686  18.765  -4.674  1.00  0.00    -0.198 NA
ATOM     20  C   UNL     1      30.167  18.137  -5.523  1.00  0.00     0.067 C
ATOM     21  C   UNL     1      30.793  17.365  -6.607  1.00  0.00     0.114 C
ATOM     22  C   UNL     1      32.305  17.596  -6.652  1.00  0.00     0.042 C
ATOM     23  C   UNL     1      30.696  15.865  -6.345  1.00  0.00     0.138 C
ATOM     24  C   UNL     1      32.858  16.621  -5.616  1.00  0.00     0.121 C
ENDBRANCH  16  18
ENDBRANCH  15  16
BRANCH  15  25
ATOM     25  C   UNL     1      30.917  14.821  -2.770  1.00  0.00     0.023 C
ATOM     26  C   UNL     1      31.138  15.236  -1.320  1.00  0.00     0.013 C
ATOM     27  C   UNL     1      31.025  16.288  -2.380  1.00  0.00     0.013 C
ATOM     28  G   UNL     1      29.516  14.310  -3.109  1.00  0.00     0.000 C
ENDBRANCH  15  25
ENDBRANCH  12  15
ENDBRANCH   1  11
BRANCH   7  29
ATOM     29  C   UNL     1      29.189  10.199  -5.650  1.00  0.00     0.045 C
ATOM     30  C   UNL     1      27.955  10.893  -5.144  1.00  0.00     0.017 C
ATOM     31  C   UNL     1      27.841   9.465  -5.611  1.00  0.00     0.025 C
BRANCH  31  32
ATOM     32  C   UNL     1      27.168   9.046  -6.877  1.00  0.00     0.164 C
BRANCH  32  33
ATOM     33  O   UNL     1      26.877   7.642  -6.837  1.00  0.00    -0.380 OA
BRANCH  33  34
ATOM     34  C   UNL     1      26.661   7.143  -5.522  1.00  0.00     0.169 C
ATOM     35  G   UNL     1      27.471   5.865  -5.293  1.00  0.00     0.000 C
ENDBRANCH  33  34
ENDBRANCH  32  33
ENDBRANCH  31  32
ENDBRANCH   7  29
TORSDOF 2
ENDMDL
MODEL 8
REMARK VINA RESULT:      -7.7      2.156      3.800
REMARK SMILES N#C[C@H]1CCN(C(=O)[C@@H]2NC(=O)c3c[nH]c4ncc(nc34)[C@@H]3C[C@H]3COCC23CC3)C1
REMARK SMILES IDX 13 1 14 2 15 3 16 4 17 5 18 6 19 7 20 8 21 9 11 11 10 12
REMARK SMILES IDX 12 13 9 15 7 16 8 17 6 18 1 19 2 20 3 21 4 22 31 23 5 24
REMARK SMILES IDX 28 25 29 26 30 27 22 29 23 30 24 31 25 32 26 33 27 34
REMARK H PARENT 15 10 10 14
REMARK Flexibility Score:  106.900
ROOT
ATOM      1  C   UNL     1      34.106  12.625  -2.704  1.00  0.00     0.085 A
ATOM      2  C   UNL     1      35.381  12.581  -2.158  1.00  0.00     0.100 A
ATOM      3  N   UNL     1      35.655  11.276  -1.786  1.00  0.00    -0.344 N
ATOM      4  C   UNL     1      34.586  10.473  -2.085  1.00  0.00     0.156 A
ATOM      5  N   UNL     1      34.465   9.138  -1.919  1.00  0.00    -0.235 NA
ATOM      6  C   UNL     1      33.250   8.699  -2.383  1.00  0.00     0.137 A
ATOM      7  C   UNL     1      32.246   9.505  -2.933  1.00  0.00     0.063 A
ATOM      8  N   UNL     1      32.422  10.833  -3.026  1.00  0.00    -0.247 NA
ATOM      9  C   UNL     1      33.620  11.300  -2.622  1.00  0.00     0.120 A
ATOM     10  H   UNL     1      36.516  10.941  -1.377  1.00  0.00     0.168 HD
ENDROOT
BRANCH   1  11
ATOM     11  C   UNL     1      33.382  13.756  -3.286  1.00  0.00     0.255 C
ATOM     12  N   UNL     1      32.023  13.555  -3.317  1.00  0.00    -0.339 N
ATOM     13  O   UNL     1      33.934  14.762  -3.718  1.00  0.00    -0.269 OA
ATOM     14  H   UNL     1      31.703  12.618  -3.080  1.00  0.00     0.164 HD
BRANCH  12  15
ATOM     15  C   UNL     1      31.044  14.379  -3.989  1.00  0.00     0.180 C
BRANCH  15  16
ATOM     16  C   UNL     1      29.748  13.528  -4.083  1.00  0.00     0.245 C
ATOM     17  O   UNL     1      29.594  12.494  -3.425  1.00  0.00    -0.272 OA
BRANCH  16  18
ATOM     18  N   UNL     1      28.761  13.948  -4.955  1.00  0.00    -0.340 N
ATOM     19  N   UNL     1      26.693  12.180  -7.918  1.00  0.00    -0.198 NA
ATOM     20  C   UNL     1      27.157  13.168  -7.524  1.00  0.00     0.067 C
ATOM     21  C   UNL     1      27.718  14.433  -7.024  1.00  0.00     0.114 C
ATOM     22  C   UNL     1      26.871  15.004  -5.884  1.00  0.00     0.042 C
ATOM     23  C   UNL     1      29.069  14.212  -6.352  1.00  0.00     0.138 C
ATOM     24  C   UNL     1      27.378  14.271  -4.646  1.00  0.00     0.121 C
ENDBRANCH  16  18
ENDBRANCH  15  16
BRANCH  15  25
ATOM     25  C   UNL     1      30.845  15.717  -3.246  1.00  0.00     0.023 C
ATOM     26  C   UNL     1      31.395  16.958  -3.940  1.00  0.00     0.013 C
ATOM     27  C   UNL     1      29.915  16.743  -3.878  1.00  0.00     0.013 C
ATOM     28  G   UNL     1      30.921  15.721  -1.718  1.00  0.00     0.000 C
ENDBRANCH  15  25
ENDBRANCH  12  15
ENDBRANCH   1  11
BRANCH   7  29
ATOM     29  C   UNL     1      30.912   9.032  -3.454  1.00  0.00     0.045 C
ATOM     30  C   UNL     1      30.696   7.829  -4.330  1.00  0.00     0.017 C
ATOM     31  C   UNL     1      30.749   9.191  -4.973  1.00  0.00     0.025 C
BRANCH  31  32
ATOM     32  C   UNL     1      29.562   9.900  -5.539  1.00  0.00     0.164 C
BRANCH  32  33
ATOM     33  O   UNL     1      28.805   9.006  -6.366  1.00  0.00    -0.380 OA
BRANCH  33  34
ATOM     34  C   UNL     1      27.397   9.150  -6.219  1.00  0.00     0.169 C
ATOM     35  G   UNL     1      26.801   7.922  -5.527  1.00  0.00     0.000 C
ENDBRANCH  33  34
ENDBRANCH  32  33
ENDBRANCH  31  32
ENDBRANCH   7  29
TORSDOF 2
ENDMDL
MODEL 9
REMARK VINA RESULT:      -7.7      1.206      1.360
REMARK SMILES N#C[C@H]1CCN(C(=O)[C@@H]2NC(=O)c3c[nH]c4ncc(nc34)[C@@H]3C[C@H]3COCC23CC3)C1
REMARK SMILES IDX 13 1 14 2 15 3 16 4 17 5 18 6 19 7 20 8 21 9 11 11 10 12
REMARK SMILES IDX 12 13 9 15 7 16 8 17 6 18 1 19 2 20 3 21 4 22 31 23 5 24
REMARK SMILES IDX 28 25 29 26 30 27 22 29 23 30 24 31 25 32 26 33 27 34
REMARK H PARENT 15 10 10 14
REMARK Flexibility Score:  106.900
ROOT
ATOM      1  C   UNL     1      32.821  14.379  -2.881  1.00  0.00     0.085 A
ATOM      2  C   UNL     1      34.136  14.774  -2.680  1.00  0.00     0.100 A
ATOM      3  N   UNL     1      34.933  13.642  -2.634  1.00  0.00    -0.344 N
ATOM      4  C   UNL     1      34.162  12.524  -2.808  1.00  0.00     0.156 A
ATOM      5  N   UNL     1      34.555  11.233  -2.868  1.00  0.00    -0.235 NA
ATOM      6  C   UNL     1      33.480  10.408  -3.095  1.00  0.00     0.137 A
ATOM      7  C   UNL     1      32.148  10.819  -3.224  1.00  0.00     0.063 A
ATOM      8  N   UNL     1      31.829  12.119  -3.109  1.00  0.00    -0.247 NA
ATOM      9  C   UNL     1      32.860  12.966  -2.930  1.00  0.00     0.120 A
ATOM     10  H   UNL     1      35.936  13.624  -2.517  1.00  0.00     0.168 HD
ENDROOT
BRANCH   1  11
ATOM     11  C   UNL     1      31.620  15.198  -3.048  1.00  0.00     0.255 C
ATOM     12  N   UNL     1      31.227  15.299  -4.360  1.00  0.00    -0.339 N
ATOM     13  O   UNL     1      31.044  15.752  -2.117  1.00  0.00    -0.269 OA
ATOM     14  H   UNL     1      31.877  14.931  -5.052  1.00  0.00     0.164 HD
BRANCH  12  15
ATOM     15  C   UNL     1      30.207  16.174  -4.891  1.00  0.00     0.180 C
BRANCH  15  16
ATOM     16  C   UNL     1      30.916  17.102  -5.915  1.00  0.00     0.245 C
ATOM     17  O   UNL     1      31.428  16.664  -6.950  1.00  0.00    -0.272 OA
BRANCH  16  18
ATOM     18  N   UNL     1      30.986  18.452  -5.624  1.00  0.00    -0.340 N
ATOM     19  N   UNL     1      33.972  21.143  -5.490  1.00  0.00    -0.198 NA
ATOM     20  C   UNL     1      32.951  20.815  -5.047  1.00  0.00     0.067 C
ATOM     21  C   UNL     1      31.645  20.424  -4.494  1.00  0.00     0.114 C
ATOM     22  C   UNL     1      30.509  20.753  -5.466  1.00  0.00     0.042 C
ATOM     23  C   UNL     1      31.533  18.909  -4.356  1.00  0.00     0.138 C
ATOM     24  C   UNL     1      30.482  19.560  -6.417  1.00  0.00     0.121 C
ENDBRANCH  16  18
ENDBRANCH  15  16
BRANCH  15  25
ATOM     25  C   UNL     1      29.046  15.362  -5.504  1.00  0.00     0.023 C
ATOM     26  C   UNL     1      27.647  15.718  -5.015  1.00  0.00     0.013 C
ATOM     27  C   UNL     1      28.064  16.101  -6.401  1.00  0.00     0.013 C
ATOM     28  G   UNL     1      29.280  13.885  -5.827  1.00  0.00     0.000 C
ENDBRANCH  15  25
ENDBRANCH  12  15
ENDBRANCH   1  11
BRANCH   7  29
ATOM     29  C   UNL     1      30.963   9.923  -3.483  1.00  0.00     0.045 C
ATOM     30  C   UNL     1      30.974   8.690  -4.344  1.00  0.00     0.017 C
ATOM     31  C   UNL     1      30.451   9.976  -4.929  1.00  0.00     0.025 C
BRANCH  31  32
ATOM     32  C   UNL     1      29.009  10.244  -5.215  1.00  0.00     0.164 C
BRANCH  32  33
ATOM     33  O   UNL     1      28.398   9.081  -5.790  1.00  0.00    -0.380 OA
BRANCH  33  34
ATOM     34  C   UNL     1      27.469   9.380  -6.826  1.00  0.00     0.169 C
ATOM     35  G   UNL     1      26.464   8.238  -6.991  1.00  0.00     0.000 C
ENDBRANCH  33  34
ENDBRANCH  32  33
ENDBRANCH  31  32
ENDBRANCH   7  29
TORSDOF 2
ENDMDL
