MODEL 1
REMARK VINA RESULT:      -8.3      0.000      0.000
REMARK SMILES N#C[C@]12CCOCNC[C@]3(CC3)c3cnc4[nH]cc(c4n3)C(=O)N[C@H](C3CC3)C(=O)N(C1)C2
REMARK SMILES IDX 13 1 14 2 15 3 16 4 17 5 18 6 19 7 20 8 21 9 22 11 24 12
REMARK SMILES IDX 23 13 25 15 29 16 30 17 31 18 1 19 2 20 3 21 32 22 33 23
REMARK SMILES IDX 4 24 26 26 27 27 28 28 10 29 12 30 11 31 9 32 8 33 7 35 6 36
REMARK SMILES IDX 5 37
REMARK H PARENT 17 10 24 14 8 34
REMARK Flexibility Score:  115.900
ROOT
ATOM      1  C   UNL     1      33.412  11.229  -2.782  1.00  0.00     0.067 A
ATOM      2  C   UNL     1      34.681  11.641  -2.344  1.00  0.00     0.138 A
ATOM      3  N   UNL     1      35.141  12.917  -2.326  1.00  0.00    -0.235 NA
ATOM      4  C   UNL     1      34.202  13.765  -2.785  1.00  0.00     0.156 A
ATOM      5  N   UNL     1      34.336  15.119  -2.889  1.00  0.00    -0.344 N
ATOM      6  C   UNL     1      33.176  15.656  -3.385  1.00  0.00     0.100 A
ATOM      7  C   UNL     1      32.270  14.627  -3.617  1.00  0.00     0.085 A
ATOM      8  C   UNL     1      32.930  13.424  -3.233  1.00  0.00     0.120 A
ATOM      9  N   UNL     1      32.499  12.130  -3.250  1.00  0.00    -0.246 NA
ATOM     10  H   UNL     1      35.170  15.627  -2.631  1.00  0.00     0.168 HD
ENDROOT
BRANCH   7  11
ATOM     11  C   UNL     1      30.927  14.817  -4.150  1.00  0.00     0.255 C
ATOM     12  N   UNL     1      30.731  16.021  -4.778  1.00  0.00    -0.340 N
ATOM     13  O   UNL     1      30.056  13.959  -4.052  1.00  0.00    -0.269 OA
ATOM     14  H   UNL     1      31.512  16.670  -4.802  1.00  0.00     0.164 HD
BRANCH  12  15
ATOM     15  C   UNL     1      29.419  16.460  -5.232  1.00  0.00     0.175 C
BRANCH  15  16
ATOM     16  C   UNL     1      29.291  17.968  -4.893  1.00  0.00     0.245 C
ATOM     17  O   UNL     1      28.275  18.399  -4.330  1.00  0.00    -0.272 OA
BRANCH  16  18
ATOM     18  N   UNL     1      30.284  18.856  -5.193  1.00  0.00    -0.338 N
ATOM     19  N   UNL     1      33.494  21.729  -5.767  1.00  0.00    -0.198 NA
ATOM     20  C   UNL     1      32.935  20.722  -5.635  1.00  0.00     0.073 C
ATOM     21  C   UNL     1      32.226  19.464  -5.481  1.00  0.00     0.095 C
ATOM     22  C   UNL     1      31.253  19.452  -4.273  1.00  0.00     0.143 C
ATOM     23  C   UNL     1      30.945  19.383  -6.368  1.00  0.00     0.143 C
BRANCH  21  24
ATOM     24  C   UNL     1      33.207  18.277  -5.601  1.00  0.00     0.054 C
ATOM     25  G   UNL     1      33.966  18.234  -6.927  1.00  0.00     0.000 C
ENDBRANCH  21  24
ENDBRANCH  16  18
ENDBRANCH  15  16
BRANCH  15  26
ATOM     26  C   UNL     1      29.294  16.029  -6.667  1.00  0.00     0.021 C
ATOM     27  C   UNL     1      28.180  16.541  -7.551  1.00  0.00     0.006 C
ATOM     28  C   UNL     1      28.150  15.121  -7.066  1.00  0.00     0.006 C
ENDBRANCH  15  26
ENDBRANCH  12  15
ENDBRANCH   7  11
BRANCH   1  29
ATOM     29  C   UNL     1      33.019   9.748  -2.728  1.00  0.00     0.027 C
ATOM     30  C   UNL     1      33.148   9.023  -1.386  1.00  0.00     0.016 C
ATOM     31  C   UNL     1      34.146   8.748  -2.462  1.00  0.00     0.016 C
BRANCH  29  32
ATOM     32  C   UNL     1      31.937   9.330  -3.722  1.00  0.00     0.096 C
BRANCH  32  33
ATOM     33  N   UNL     1      30.607   9.869  -3.458  1.00  0.00    -0.294 NA
ATOM     34  H   UNL     1      30.660  10.746  -2.950  1.00  0.00     0.124 HD
BRANCH  33  35
ATOM     35  C   UNL     1      29.838  10.089  -4.660  1.00  0.00     0.244 C
BRANCH  35  36
ATOM     36  O   UNL     1      30.211   9.104  -5.619  1.00  0.00    -0.366 OA
BRANCH  36  37
ATOM     37  C   UNL     1      29.065   8.645  -6.332  1.00  0.00     0.164 C
ATOM     38  G   UNL     1      28.736   7.212  -5.915  1.00  0.00     0.000 C
ENDBRANCH  36  37
ENDBRANCH  35  36
ENDBRANCH  33  35
ENDBRANCH  32  33
ENDBRANCH  29  32
ENDBRANCH   1  29
TORSDOF 1
ENDMDL
MODEL 2
REMARK VINA RESULT:      -8.2      0.939      1.050
REMARK SMILES N#C[C@]12CCOCNC[C@]3(CC3)c3cnc4[nH]cc(c4n3)C(=O)N[C@H](C3CC3)C(=O)N(C1)C2
REMARK SMILES IDX 13 1 14 2 15 3 16 4 17 5 18 6 19 7 20 8 21 9 22 11 24 12
REMARK SMILES IDX 23 13 25 15 29 16 30 17 31 18 1 19 2 20 3 21 32 22 33 23
REMARK SMILES IDX 4 24 26 26 27 27 28 28 10 29 12 30 11 31 9 32 8 33 7 35 6 36
REMARK SMILES IDX 5 37
REMARK H PARENT 17 10 24 14 8 34
REMARK Flexibility Score:  115.900
ROOT
ATOM      1  C   UNL     1      33.434  11.245  -2.767  1.00  0.00     0.067 A
ATOM      2  C   UNL     1      34.730  11.653  -2.410  1.00  0.00     0.138 A
ATOM      3  N   UNL     1      35.193  12.929  -2.418  1.00  0.00    -0.235 NA
ATOM      4  C   UNL     1      34.228  13.779  -2.813  1.00  0.00     0.156 A
ATOM      5  N   UNL     1      34.357  15.134  -2.921  1.00  0.00    -0.344 N
ATOM      6  C   UNL     1      33.169  15.674  -3.340  1.00  0.00     0.100 A
ATOM      7  C   UNL     1      32.248  14.648  -3.516  1.00  0.00     0.085 A
ATOM      8  C   UNL     1      32.929  13.443  -3.179  1.00  0.00     0.120 A
ATOM      9  N   UNL     1      32.495  12.149  -3.172  1.00  0.00    -0.246 NA
ATOM     10  H   UNL     1      35.208  15.639  -2.715  1.00  0.00     0.168 HD
ENDROOT
BRANCH   7  11
ATOM     11  C   UNL     1      30.873  14.842  -3.960  1.00  0.00     0.255 C
ATOM     12  N   UNL     1      30.695  15.911  -4.802  1.00  0.00    -0.340 N
ATOM     13  O   UNL     1      29.963  14.097  -3.616  1.00  0.00    -0.269 OA
ATOM     14  H   UNL     1      31.511  16.475  -5.024  1.00  0.00     0.164 HD
BRANCH  12  15
ATOM     15  C   UNL     1      29.377  16.362  -5.223  1.00  0.00     0.175 C
BRANCH  15  16
ATOM     16  C   UNL     1      29.317  17.895  -5.000  1.00  0.00     0.245 C
ATOM     17  O   UNL     1      28.267  18.432  -4.619  1.00  0.00    -0.272 OA
BRANCH  16  18
ATOM     18  N   UNL     1      30.406  18.692  -5.204  1.00  0.00    -0.338 N
ATOM     19  N   UNL     1      34.018  21.088  -5.525  1.00  0.00    -0.198 NA
ATOM     20  C   UNL     1      33.271  20.210  -5.648  1.00  0.00     0.073 C
ATOM     21  C   UNL     1      32.324  19.120  -5.806  1.00  0.00     0.095 C
ATOM     22  C   UNL     1      31.673  18.674  -4.471  1.00  0.00     0.143 C
ATOM     23  C   UNL     1      30.899  19.614  -6.206  1.00  0.00     0.143 C
BRANCH  21  24
ATOM     24  C   UNL     1      32.928  18.010  -6.695  1.00  0.00     0.054 C
ATOM     25  G   UNL     1      34.452  17.922  -6.624  1.00  0.00     0.000 C
ENDBRANCH  21  24
ENDBRANCH  16  18
ENDBRANCH  15  16
BRANCH  15  26
ATOM     26  C   UNL     1      29.161  15.825  -6.611  1.00  0.00     0.021 C
ATOM     27  C   UNL     1      27.925  16.171  -7.408  1.00  0.00     0.006 C
ATOM     28  C   UNL     1      28.080  14.791  -6.840  1.00  0.00     0.006 C
ENDBRANCH  15  26
ENDBRANCH  12  15
ENDBRANCH   7  11
BRANCH   1  29
ATOM     29  C   UNL     1      33.042   9.765  -2.692  1.00  0.00     0.027 C
ATOM     30  C   UNL     1      33.296   9.023  -1.377  1.00  0.00     0.016 C
ATOM     31  C   UNL     1      34.186   8.759  -2.546  1.00  0.00     0.016 C
BRANCH  29  32
ATOM     32  C   UNL     1      31.869   9.361  -3.584  1.00  0.00     0.096 C
BRANCH  32  33
ATOM     33  N   UNL     1      31.333   8.027  -3.340  1.00  0.00    -0.294 NA
ATOM     34  H   UNL     1      30.581   8.051  -2.658  1.00  0.00     0.124 HD
BRANCH  33  35
ATOM     35  C   UNL     1      30.837   7.389  -4.537  1.00  0.00     0.244 C
BRANCH  35  36
ATOM     36  O   UNL     1      30.197   6.172  -4.165  1.00  0.00    -0.366 OA
BRANCH  36  37
ATOM     37  C   UNL     1      29.410   5.675  -5.244  1.00  0.00     0.164 C
ATOM     38  G   UNL     1      28.335   6.696  -5.614  1.00  0.00     0.000 C
ENDBRANCH  36  37
ENDBRANCH  35  36
ENDBRANCH  33  35
ENDBRANCH  32  33
ENDBRANCH  29  32
ENDBRANCH   1  29
TORSDOF 1
ENDMDL
MODEL 3
REMARK VINA RESULT:      -7.8      1.323      1.601
REMARK SMILES N#C[C@]12CCOCNC[C@]3(CC3)c3cnc4[nH]cc(c4n3)C(=O)N[C@H](C3CC3)C(=O)N(C1)C2
REMARK SMILES IDX 13 1 14 2 15 3 16 4 17 5 18 6 19 7 20 8 21 9 22 11 24 12
REMARK SMILES IDX 23 13 25 15 29 16 30 17 31 18 1 19 2 20 3 21 32 22 33 23
REMARK SMILES IDX 4 24 26 26 27 27 28 28 10 29 12 30 11 31 9 32 8 33 7 35 6 36
REMARK SMILES IDX 5 37
REMARK H PARENT 17 10 24 14 8 34
REMARK Flexibility Score:  115.900
ROOT
ATOM      1  C   UNL     1      33.721  11.271  -2.525  1.00  0.00     0.067 A
ATOM      2  C   UNL     1      35.000  11.795  -2.275  1.00  0.00     0.138 A
ATOM      3  N   UNL     1      35.358  13.100  -2.379  1.00  0.00    -0.235 NA
ATOM      4  C   UNL     1      34.307  13.851  -2.754  1.00  0.00     0.156 A
ATOM      5  N   UNL     1      34.322  15.203  -2.941  1.00  0.00    -0.344 N
ATOM      6  C   UNL     1      33.072  15.627  -3.310  1.00  0.00     0.100 A
ATOM      7  C   UNL     1      32.226  14.526  -3.372  1.00  0.00     0.085 A
ATOM      8  C   UNL     1      33.020  13.397  -3.017  1.00  0.00     0.120 A
ATOM      9  N   UNL     1      32.690  12.076  -2.916  1.00  0.00    -0.246 NA
ATOM     10  H   UNL     1      35.141  15.782  -2.817  1.00  0.00     0.168 HD
ENDROOT
BRANCH   7  11
ATOM     11  C   UNL     1      30.816  14.589  -3.736  1.00  0.00     0.255 C
ATOM     12  N   UNL     1      30.584  14.881  -5.057  1.00  0.00    -0.340 N
ATOM     13  O   UNL     1      29.920  14.382  -2.925  1.00  0.00    -0.269 OA
ATOM     14  H   UNL     1      31.393  15.044  -5.650  1.00  0.00     0.164 HD
BRANCH  12  15
ATOM     15  C   UNL     1      29.250  15.145  -5.575  1.00  0.00     0.175 C
BRANCH  15  16
ATOM     16  C   UNL     1      29.346  16.390  -6.495  1.00  0.00     0.245 C
ATOM     17  O   UNL     1      29.120  16.290  -7.710  1.00  0.00    -0.272 OA
BRANCH  16  18
ATOM     18  N   UNL     1      29.671  17.620  -6.003  1.00  0.00    -0.338 N
ATOM     19  N   UNL     1      30.828  21.360  -4.114  1.00  0.00    -0.198 NA
ATOM     20  C   UNL     1      30.877  20.394  -4.754  1.00  0.00     0.073 C
ATOM     21  C   UNL     1      30.925  19.188  -5.562  1.00  0.00     0.095 C
ATOM     22  C   UNL     1      30.451  17.922  -4.802  1.00  0.00     0.143 C
ATOM     23  C   UNL     1      29.648  19.001  -6.439  1.00  0.00     0.143 C
BRANCH  21  24
ATOM     24  C   UNL     1      32.276  19.094  -6.305  1.00  0.00     0.054 C
ATOM     25  G   UNL     1      33.422  19.818  -5.599  1.00  0.00     0.000 C
ENDBRANCH  21  24
ENDBRANCH  16  18
ENDBRANCH  15  16
BRANCH  15  26
ATOM     26  C   UNL     1      28.752  13.851  -6.159  1.00  0.00     0.021 C
ATOM     27  C   UNL     1      27.320  13.691  -6.614  1.00  0.00     0.006 C
ATOM     28  C   UNL     1      27.781  13.009  -5.360  1.00  0.00     0.006 C
ENDBRANCH  15  26
ENDBRANCH  12  15
ENDBRANCH   7  11
BRANCH   1  29
ATOM     29  C   UNL     1      33.452   9.772  -2.348  1.00  0.00     0.027 C
ATOM     30  C   UNL     1      34.205   9.037  -1.236  1.00  0.00     0.016 C
ATOM     31  C   UNL     1      34.615   8.825  -2.655  1.00  0.00     0.016 C
BRANCH  29  32
ATOM     32  C   UNL     1      32.054   9.312  -2.759  1.00  0.00     0.096 C
BRANCH  32  33
ATOM     33  N   UNL     1      31.665   9.650  -4.124  1.00  0.00    -0.294 NA
ATOM     34  H   UNL     1      32.170   9.086  -4.801  1.00  0.00     0.124 HD
BRANCH  33  35
ATOM     35  C   UNL     1      30.250   9.485  -4.365  1.00  0.00     0.244 C
BRANCH  35  36
ATOM     36  O   UNL     1      30.076   8.983  -5.687  1.00  0.00    -0.366 OA
BRANCH  36  37
ATOM     37  C   UNL     1      29.235   7.832  -5.674  1.00  0.00     0.164 C
ATOM     38  G   UNL     1      29.968   6.662  -5.020  1.00  0.00     0.000 C
ENDBRANCH  36  37
ENDBRANCH  35  36
ENDBRANCH  33  35
ENDBRANCH  32  33
ENDBRANCH  29  32
ENDBRANCH   1  29
TORSDOF 1
ENDMDL
MODEL 4
REMARK VINA RESULT:      -7.6      1.055      1.542
REMARK SMILES N#C[C@]12CCOCNC[C@]3(CC3)c3cnc4[nH]cc(c4n3)C(=O)N[C@H](C3CC3)C(=O)N(C1)C2
REMARK SMILES IDX 13 1 14 2 15 3 16 4 17 5 18 6 19 7 20 8 21 9 22 11 24 12
REMARK SMILES IDX 23 13 25 15 29 16 30 17 31 18 1 19 2 20 3 21 32 22 33 23
REMARK SMILES IDX 4 24 26 26 27 27 28 28 10 29 12 30 11 31 9 32 8 33 7 35 6 36
REMARK SMILES IDX 5 37
REMARK H PARENT 17 10 24 14 8 34
REMARK Flexibility Score:  115.900
ROOT
ATOM      1  C   UNL     1      33.571  11.259  -2.535  1.00  0.00     0.067 A
ATOM      2  C   UNL     1      34.914  11.649  -2.403  1.00  0.00     0.138 A
ATOM      3  N   UNL     1      35.387  12.917  -2.495  1.00  0.00    -0.235 NA
ATOM      4  C   UNL     1      34.381  13.781  -2.725  1.00  0.00     0.156 A
ATOM      5  N   UNL     1      34.510  15.133  -2.860  1.00  0.00    -0.344 N
ATOM      6  C   UNL     1      33.276  15.691  -3.075  1.00  0.00     0.100 A
ATOM      7  C   UNL     1      32.324  14.677  -3.088  1.00  0.00     0.085 A
ATOM      8  C   UNL     1      33.035  13.463  -2.866  1.00  0.00     0.120 A
ATOM      9  N   UNL     1      32.589  12.176  -2.780  1.00  0.00    -0.246 NA
ATOM     10  H   UNL     1      35.390  15.627  -2.803  1.00  0.00     0.168 HD
ENDROOT
BRANCH   7  11
ATOM     11  C   UNL     1      30.897  14.891  -3.296  1.00  0.00     0.255 C
ATOM     12  N   UNL     1      30.596  15.779  -4.298  1.00  0.00    -0.340 N
ATOM     13  O   UNL     1      30.045  14.308  -2.634  1.00  0.00    -0.269 OA
ATOM     14  H   UNL     1      31.372  16.216  -4.786  1.00  0.00     0.164 HD
BRANCH  12  15
ATOM     15  C   UNL     1      29.239  16.243  -4.549  1.00  0.00     0.175 C
BRANCH  15  16
ATOM     16  C   UNL     1      29.319  17.755  -4.880  1.00  0.00     0.245 C
ATOM     17  O   UNL     1      28.287  18.438  -4.942  1.00  0.00    -0.272 OA
BRANCH  16  18
ATOM     18  N   UNL     1      30.513  18.377  -5.102  1.00  0.00    -0.338 N
ATOM     19  N   UNL     1      34.233  20.346  -6.187  1.00  0.00    -0.198 NA
ATOM     20  C   UNL     1      33.129  20.187  -5.871  1.00  0.00     0.073 C
ATOM     21  C   UNL     1      31.751  19.978  -5.463  1.00  0.00     0.095 C
ATOM     22  C   UNL     1      30.995  18.960  -6.355  1.00  0.00     0.143 C
ATOM     23  C   UNL     1      31.614  18.914  -4.330  1.00  0.00     0.143 C
BRANCH  21  24
ATOM     24  C   UNL     1      31.057  21.334  -5.205  1.00  0.00     0.054 C
ATOM     25  G   UNL     1      31.834  22.257  -4.267  1.00  0.00     0.000 C
ENDBRANCH  21  24
ENDBRANCH  16  18
ENDBRANCH  15  16
BRANCH  15  26
ATOM     26  C   UNL     1      28.647  15.310  -5.569  1.00  0.00     0.021 C
ATOM     27  C   UNL     1      27.314  15.596  -6.220  1.00  0.00     0.006 C
ATOM     28  C   UNL     1      27.423  14.498  -5.202  1.00  0.00     0.006 C
ENDBRANCH  15  26
ENDBRANCH  12  15
ENDBRANCH   7  11
BRANCH   1  29
ATOM     29  C   UNL     1      33.176   9.785  -2.388  1.00  0.00     0.027 C
ATOM     30  C   UNL     1      33.886   8.958  -1.313  1.00  0.00     0.016 C
ATOM     31  C   UNL     1      34.244   8.750  -2.747  1.00  0.00     0.016 C
BRANCH  29  32
ATOM     32  C   UNL     1      31.734   9.460  -2.775  1.00  0.00     0.096 C
BRANCH  32  33
ATOM     33  N   UNL     1      31.387   9.734  -4.165  1.00  0.00    -0.294 NA
ATOM     34  H   UNL     1      32.218   9.847  -4.736  1.00  0.00     0.124 HD
BRANCH  33  35
ATOM     35  C   UNL     1      30.569   8.700  -4.757  1.00  0.00     0.244 C
BRANCH  35  36
ATOM     36  O   UNL     1      29.245   9.204  -4.902  1.00  0.00    -0.366 OA
BRANCH  36  37
ATOM     37  C   UNL     1      28.520   8.427  -5.852  1.00  0.00     0.164 C
ATOM     38  G   UNL     1      27.040   8.804  -5.809  1.00  0.00     0.000 C
ENDBRANCH  36  37
ENDBRANCH  35  36
ENDBRANCH  33  35
ENDBRANCH  32  33
ENDBRANCH  29  32
ENDBRANCH   1  29
TORSDOF 1
ENDMDL
MODEL 5
REMARK VINA RESULT:      -7.6      2.391      4.566
REMARK SMILES N#C[C@]12CCOCNC[C@]3(CC3)c3cnc4[nH]cc(c4n3)C(=O)N[C@H](C3CC3)C(=O)N(C1)C2
REMARK SMILES IDX 13 1 14 2 15 3 16 4 17 5 18 6 19 7 20 8 21 9 22 11 24 12
REMARK SMILES IDX 23 13 25 15 29 16 30 17 31 18 1 19 2 20 3 21 32 22 33 23
REMARK SMILES IDX 4 24 26 26 27 27 28 28 10 29 12 30 11 31 9 32 8 33 7 35 6 36
REMARK SMILES IDX 5 37
REMARK H PARENT 17 10 24 14 8 34
REMARK Flexibility Score:  115.900
ROOT
ATOM      1  C   UNL     1      32.992  11.066  -3.005  1.00  0.00     0.067 A
ATOM      2  C   UNL     1      34.193  11.002  -2.280  1.00  0.00     0.138 A
ATOM      3  N   UNL     1      35.037  12.038  -2.044  1.00  0.00    -0.235 NA
ATOM      4  C   UNL     1      34.563  13.169  -2.600  1.00  0.00     0.156 A
ATOM      5  N   UNL     1      35.162  14.394  -2.542  1.00  0.00    -0.344 N
ATOM      6  C   UNL     1      34.392  15.311  -3.209  1.00  0.00     0.100 A
ATOM      7  C   UNL     1      33.270  14.666  -3.719  1.00  0.00     0.085 A
ATOM      8  C   UNL     1      33.386  13.301  -3.328  1.00  0.00     0.120 A
ATOM      9  N   UNL     1      32.562  12.238  -3.558  1.00  0.00    -0.246 NA
ATOM     10  H   UNL     1      36.038  14.574  -2.071  1.00  0.00     0.168 HD
ENDROOT
BRANCH   7  11
ATOM     11  C   UNL     1      32.223  15.323  -4.492  1.00  0.00     0.255 C
ATOM     12  N   UNL     1      30.955  15.136  -4.003  1.00  0.00    -0.340 N
ATOM     13  O   UNL     1      32.469  15.996  -5.487  1.00  0.00    -0.269 OA
ATOM     14  H   UNL     1      30.852  14.555  -3.175  1.00  0.00     0.164 HD
BRANCH  12  15
ATOM     15  C   UNL     1      29.768  15.575  -4.722  1.00  0.00     0.175 C
BRANCH  15  16
ATOM     16  C   UNL     1      28.723  14.433  -4.636  1.00  0.00     0.245 C
ATOM     17  O   UNL     1      28.876  13.503  -3.831  1.00  0.00    -0.272 OA
BRANCH  16  18
ATOM     18  N   UNL     1      27.611  14.419  -5.428  1.00  0.00    -0.338 N
ATOM     19  N   UNL     1      24.278  14.567  -8.213  1.00  0.00    -0.198 NA
ATOM     20  C   UNL     1      25.222  14.195  -7.652  1.00  0.00     0.073 C
ATOM     21  C   UNL     1      26.397  13.730  -6.936  1.00  0.00     0.095 C
ATOM     22  C   UNL     1      27.517  14.798  -6.838  1.00  0.00     0.143 C
ATOM     23  C   UNL     1      26.263  13.894  -5.390  1.00  0.00     0.143 C
BRANCH  21  24
ATOM     24  C   UNL     1      26.808  12.327  -7.434  1.00  0.00     0.054 C
ATOM     25  G   UNL     1      26.527  12.090  -8.917  1.00  0.00     0.000 C
ENDBRANCH  21  24
ENDBRANCH  16  18
ENDBRANCH  15  16
BRANCH  15  26
ATOM     26  C   UNL     1      29.408  16.928  -4.171  1.00  0.00     0.021 C
ATOM     27  C   UNL     1      28.152  17.647  -4.606  1.00  0.00     0.006 C
ATOM     28  C   UNL     1      29.490  18.137  -5.077  1.00  0.00     0.006 C
ENDBRANCH  15  26
ENDBRANCH  12  15
ENDBRANCH   7  11
BRANCH   1  29
ATOM     29  C   UNL     1      32.124   9.814  -3.176  1.00  0.00     0.027 C
ATOM     30  C   UNL     1      31.829   8.973  -1.932  1.00  0.00     0.016 C
ATOM     31  C   UNL     1      32.810   8.467  -2.937  1.00  0.00     0.016 C
BRANCH  29  32
ATOM     32  C   UNL     1      31.104   9.884  -4.312  1.00  0.00     0.096 C
BRANCH  32  33
ATOM     33  N   UNL     1      29.815  10.465  -3.954  1.00  0.00    -0.294 NA
ATOM     34  H   UNL     1      29.924  11.407  -3.589  1.00  0.00     0.124 HD
BRANCH  33  35
ATOM     35  C   UNL     1      28.891  10.516  -5.063  1.00  0.00     0.244 C
BRANCH  35  36
ATOM     36  O   UNL     1      27.699   9.832  -4.685  1.00  0.00    -0.366 OA
BRANCH  36  37
ATOM     37  C   UNL     1      27.277   8.958  -5.728  1.00  0.00     0.164 C
ATOM     38  G   UNL     1      28.267   7.803  -5.869  1.00  0.00     0.000 C
ENDBRANCH  36  37
ENDBRANCH  35  36
ENDBRANCH  33  35
ENDBRANCH  32  33
ENDBRANCH  29  32
ENDBRANCH   1  29
TORSDOF 1
ENDMDL
MODEL 6
REMARK VINA RESULT:      -7.6      2.400      4.361
REMARK SMILES N#C[C@]12CCOCNC[C@]3(CC3)c3cnc4[nH]cc(c4n3)C(=O)N[C@H](C3CC3)C(=O)N(C1)C2
REMARK SMILES IDX 13 1 14 2 15 3 16 4 17 5 18 6 19 7 20 8 21 9 22 11 24 12
REMARK SMILES IDX 23 13 25 15 29 16 30 17 31 18 1 19 2 20 3 21 32 22 33 23
REMARK SMILES IDX 4 24 26 26 27 27 28 28 10 29 12 30 11 31 9 32 8 33 7 35 6 36
REMARK SMILES IDX 5 37
REMARK H PARENT 17 10 24 14 8 34
REMARK Flexibility Score:  115.900
ROOT
ATOM      1  C   UNL     1      33.376  11.154  -2.849  1.00  0.00     0.067 A
ATOM      2  C   UNL     1      34.601  11.111  -2.165  1.00  0.00     0.138 A
ATOM      3  N   UNL     1      35.428  12.165  -1.947  1.00  0.00    -0.235 NA
ATOM      4  C   UNL     1      34.910  13.289  -2.476  1.00  0.00     0.156 A
ATOM      5  N   UNL     1      35.482  14.527  -2.425  1.00  0.00    -0.344 N
ATOM      6  C   UNL     1      34.669  15.432  -3.057  1.00  0.00     0.100 A
ATOM      7  C   UNL     1      33.546  14.766  -3.536  1.00  0.00     0.085 A
ATOM      8  C   UNL     1      33.707  13.400  -3.163  1.00  0.00     0.120 A
ATOM      9  N   UNL     1      32.901  12.320  -3.377  1.00  0.00    -0.246 NA
ATOM     10  H   UNL     1      36.369  14.724  -1.982  1.00  0.00     0.168 HD
ENDROOT
BRANCH   7  11
ATOM     11  C   UNL     1      32.459  15.404  -4.268  1.00  0.00     0.255 C
ATOM     12  N   UNL     1      31.205  14.987  -3.899  1.00  0.00    -0.340 N
ATOM     13  O   UNL     1      32.660  16.253  -5.129  1.00  0.00    -0.269 OA
ATOM     14  H   UNL     1      31.141  14.273  -3.179  1.00  0.00     0.164 HD
BRANCH  12  15
ATOM     15  C   UNL     1      30.006  15.387  -4.620  1.00  0.00     0.175 C
BRANCH  15  16
ATOM     16  C   UNL     1      28.945  14.275  -4.412  1.00  0.00     0.245 C
ATOM     17  O   UNL     1      28.973  13.566  -3.396  1.00  0.00    -0.272 OA
BRANCH  16  18
ATOM     18  N   UNL     1      27.956  14.049  -5.325  1.00  0.00    -0.338 N
ATOM     19  N   UNL     1      24.552  13.389  -7.945  1.00  0.00    -0.198 NA
ATOM     20  C   UNL     1      25.411  13.922  -7.378  1.00  0.00     0.073 C
ATOM     21  C   UNL     1      26.497  14.579  -6.672  1.00  0.00     0.095 C
ATOM     22  C   UNL     1      26.519  14.267  -5.153  1.00  0.00     0.143 C
ATOM     23  C   UNL     1      27.833  13.775  -6.741  1.00  0.00     0.143 C
BRANCH  21  24
ATOM     24  C   UNL     1      26.581  16.066  -7.083  1.00  0.00     0.054 C
ATOM     25  G   UNL     1      26.278  16.317  -8.559  1.00  0.00     0.000 C
ENDBRANCH  21  24
ENDBRANCH  16  18
ENDBRANCH  15  16
BRANCH  15  26
ATOM     26  C   UNL     1      29.682  16.786  -4.174  1.00  0.00     0.021 C
ATOM     27  C   UNL     1      28.329  17.405  -4.436  1.00  0.00     0.006 C
ATOM     28  C   UNL     1      29.523  17.873  -5.215  1.00  0.00     0.006 C
ENDBRANCH  15  26
ENDBRANCH  12  15
ENDBRANCH   7  11
BRANCH   1  29
ATOM     29  C   UNL     1      32.533   9.883  -3.005  1.00  0.00     0.027 C
ATOM     30  C   UNL     1      32.169   9.107  -1.736  1.00  0.00     0.016 C
ATOM     31  C   UNL     1      33.215   8.560  -2.650  1.00  0.00     0.016 C
BRANCH  29  32
ATOM     32  C   UNL     1      31.584   9.878  -4.203  1.00  0.00     0.096 C
BRANCH  32  33
ATOM     33  N   UNL     1      30.530  10.885  -4.165  1.00  0.00    -0.294 NA
ATOM     34  H   UNL     1      30.634  11.556  -4.920  1.00  0.00     0.124 HD
BRANCH  33  35
ATOM     35  C   UNL     1      29.204  10.318  -4.244  1.00  0.00     0.244 C
BRANCH  35  36
ATOM     36  O   UNL     1      28.717  10.500  -5.571  1.00  0.00    -0.366 OA
BRANCH  36  37
ATOM     37  C   UNL     1      28.134   9.294  -6.056  1.00  0.00     0.164 C
ATOM     38  G   UNL     1      29.165   8.509  -6.865  1.00  0.00     0.000 C
ENDBRANCH  36  37
ENDBRANCH  35  36
ENDBRANCH  33  35
ENDBRANCH  32  33
ENDBRANCH  29  32
ENDBRANCH   1  29
TORSDOF 1
ENDMDL
MODEL 7
REMARK VINA RESULT:      -7.5      2.463      3.290
REMARK SMILES N#C[C@]12CCOCNC[C@]3(CC3)c3cnc4[nH]cc(c4n3)C(=O)N[C@H](C3CC3)C(=O)N(C1)C2
REMARK SMILES IDX 13 1 14 2 15 3 16 4 17 5 18 6 19 7 20 8 21 9 22 11 24 12
REMARK SMILES IDX 23 13 25 15 29 16 30 17 31 18 1 19 2 20 3 21 32 22 33 23
REMARK SMILES IDX 4 24 26 26 27 27 28 28 10 29 12 30 11 31 9 32 8 33 7 35 6 36
REMARK SMILES IDX 5 37
REMARK H PARENT 17 10 24 14 8 34
REMARK Flexibility Score:  115.900
ROOT
ATOM      1  C   UNL     1      33.842  11.340  -2.483  1.00  0.00     0.067 A
ATOM      2  C   UNL     1      35.097  11.923  -2.241  1.00  0.00     0.138 A
ATOM      3  N   UNL     1      35.401  13.239  -2.367  1.00  0.00    -0.235 NA
ATOM      4  C   UNL     1      34.319  13.939  -2.756  1.00  0.00     0.156 A
ATOM      5  N   UNL     1      34.277  15.287  -2.965  1.00  0.00    -0.344 N
ATOM      6  C   UNL     1      33.011  15.652  -3.342  1.00  0.00     0.100 A
ATOM      7  C   UNL     1      32.212  14.514  -3.386  1.00  0.00     0.085 A
ATOM      8  C   UNL     1      33.052  13.426  -3.012  1.00  0.00     0.120 A
ATOM      9  N   UNL     1      32.779  12.095  -2.888  1.00  0.00    -0.246 NA
ATOM     10  H   UNL     1      35.070  15.902  -2.851  1.00  0.00     0.168 HD
ENDROOT
BRANCH   7  11
ATOM     11  C   UNL     1      30.801  14.512  -3.752  1.00  0.00     0.255 C
ATOM     12  N   UNL     1      30.557  14.800  -5.072  1.00  0.00    -0.340 N
ATOM     13  O   UNL     1      29.915  14.258  -2.944  1.00  0.00    -0.269 OA
ATOM     14  H   UNL     1      31.358  15.004  -5.663  1.00  0.00     0.164 HD
BRANCH  12  15
ATOM     15  C   UNL     1      29.212  15.002  -5.591  1.00  0.00     0.175 C
BRANCH  15  16
ATOM     16  C   UNL     1      29.229  16.308  -6.428  1.00  0.00     0.245 C
ATOM     17  O   UNL     1      30.291  16.735  -6.901  1.00  0.00    -0.272 OA
BRANCH  16  18
ATOM     18  N   UNL     1      28.087  17.014  -6.674  1.00  0.00    -0.338 N
ATOM     19  N   UNL     1      24.441  19.345  -7.079  1.00  0.00    -0.198 NA
ATOM     20  C   UNL     1      25.566  19.066  -7.053  1.00  0.00     0.073 C
ATOM     21  C   UNL     1      26.973  18.704  -7.029  1.00  0.00     0.095 C
ATOM     22  C   UNL     1      27.381  17.913  -5.760  1.00  0.00     0.143 C
ATOM     23  C   UNL     1      27.267  17.384  -7.808  1.00  0.00     0.143 C
BRANCH  21  24
ATOM     24  C   UNL     1      27.845  19.921  -7.408  1.00  0.00     0.054 C
ATOM     25  G   UNL     1      27.348  21.243  -6.825  1.00  0.00     0.000 C
ENDBRANCH  21  24
ENDBRANCH  16  18
ENDBRANCH  15  16
BRANCH  15  26
ATOM     26  C   UNL     1      28.813  13.717  -6.263  1.00  0.00     0.021 C
ATOM     27  C   UNL     1      27.406  13.494  -6.765  1.00  0.00     0.006 C
ATOM     28  C   UNL     1      27.882  12.767  -5.542  1.00  0.00     0.006 C
ENDBRANCH  15  26
ENDBRANCH  12  15
ENDBRANCH   7  11
BRANCH   1  29
ATOM     29  C   UNL     1      33.637   9.835  -2.281  1.00  0.00     0.027 C
ATOM     30  C   UNL     1      34.435   9.147  -1.170  1.00  0.00     0.016 C
ATOM     31  C   UNL     1      34.833   8.932  -2.592  1.00  0.00     0.016 C
BRANCH  29  32
ATOM     32  C   UNL     1      32.253   9.313  -2.664  1.00  0.00     0.096 C
BRANCH  32  33
ATOM     33  N   UNL     1      31.810   9.657  -4.010  1.00  0.00    -0.294 NA
ATOM     34  H   UNL     1      32.554   9.524  -4.688  1.00  0.00     0.124 HD
BRANCH  33  35
ATOM     35  C   UNL     1      30.665   8.889  -4.442  1.00  0.00     0.244 C
BRANCH  35  36
ATOM     36  O   UNL     1      29.598   9.792  -4.720  1.00  0.00    -0.366 OA
BRANCH  36  37
ATOM     37  C   UNL     1      28.579   9.139  -5.473  1.00  0.00     0.164 C
ATOM     38  G   UNL     1      29.195   8.455  -6.693  1.00  0.00     0.000 C
ENDBRANCH  36  37
ENDBRANCH  35  36
ENDBRANCH  33  35
ENDBRANCH  32  33
ENDBRANCH  29  32
ENDBRANCH   1  29
TORSDOF 1
ENDMDL
MODEL 8
REMARK VINA RESULT:      -7.5      1.920      4.594
REMARK SMILES N#C[C@]12CCOCNC[C@]3(CC3)c3cnc4[nH]cc(c4n3)C(=O)N[C@H](C3CC3)C(=O)N(C1)C2
REMARK SMILES IDX 13 1 14 2 15 3 16 4 17 5 18 6 19 7 20 8 21 9 22 11 24 12
REMARK SMILES IDX 23 13 25 15 29 16 30 17 31 18 1 19 2 20 3 21 32 22 33 23
REMARK SMILES IDX 4 24 26 26 27 27 28 28 10 29 12 30 11 31 9 32 8 33 7 35 6 36
REMARK SMILES IDX 5 37
REMARK H PARENT 17 10 24 14 8 34
REMARK Flexibility Score:  115.900
ROOT
ATOM      1  C   UNL     1      30.948   9.760  -4.080  1.00  0.00     0.067 A
ATOM      2  C   UNL     1      31.370   8.478  -3.690  1.00  0.00     0.138 A
ATOM      3  N   UNL     1      32.520   8.184  -3.034  1.00  0.00    -0.235 NA
ATOM      4  C   UNL     1      33.224   9.305  -2.788  1.00  0.00     0.156 A
ATOM      5  N   UNL     1      34.421   9.365  -2.137  1.00  0.00    -0.344 N
ATOM      6  C   UNL     1      34.835  10.670  -2.060  1.00  0.00     0.100 A
ATOM      7  C   UNL     1      33.888  11.476  -2.683  1.00  0.00     0.085 A
ATOM      8  C   UNL     1      32.865  10.600  -3.145  1.00  0.00     0.120 A
ATOM      9  N   UNL     1      31.705  10.864  -3.815  1.00  0.00    -0.246 NA
ATOM     10  H   UNL     1      34.909   8.558  -1.773  1.00  0.00     0.168 HD
ENDROOT
BRANCH   7  11
ATOM     11  C   UNL     1      33.991  12.926  -2.801  1.00  0.00     0.255 C
ATOM     12  N   UNL     1      32.796  13.562  -3.026  1.00  0.00    -0.340 N
ATOM     13  O   UNL     1      35.059  13.517  -2.691  1.00  0.00    -0.269 OA
ATOM     14  H   UNL     1      31.965  12.983  -3.108  1.00  0.00     0.164 HD
BRANCH  12  15
ATOM     15  C   UNL     1      32.713  14.983  -3.330  1.00  0.00     0.175 C
BRANCH  15  16
ATOM     16  C   UNL     1      32.058  15.121  -4.729  1.00  0.00     0.245 C
ATOM     17  O   UNL     1      31.870  14.120  -5.434  1.00  0.00    -0.272 OA
BRANCH  16  18
ATOM     18  N   UNL     1      31.666  16.334  -5.218  1.00  0.00    -0.338 N
ATOM     19  N   UNL     1      30.561  20.351  -6.455  1.00  0.00    -0.198 NA
ATOM     20  C   UNL     1      31.168  19.372  -6.327  1.00  0.00     0.073 C
ATOM     21  C   UNL     1      31.917  18.137  -6.170  1.00  0.00     0.095 C
ATOM     22  C   UNL     1      32.009  17.658  -4.699  1.00  0.00     0.143 C
ATOM     23  C   UNL     1      31.042  16.868  -6.411  1.00  0.00     0.143 C
BRANCH  21  24
ATOM     24  C   UNL     1      33.239  18.208  -6.968  1.00  0.00     0.054 C
ATOM     25  G   UNL     1      34.010  19.512  -6.773  1.00  0.00     0.000 C
ENDBRANCH  21  24
ENDBRANCH  16  18
ENDBRANCH  15  16
BRANCH  15  26
ATOM     26  C   UNL     1      32.047  15.637  -2.151  1.00  0.00     0.021 C
ATOM     27  C   UNL     1      31.350  14.822  -1.087  1.00  0.00     0.006 C
ATOM     28  C   UNL     1      30.536  15.625  -2.060  1.00  0.00     0.006 C
ENDBRANCH  15  26
ENDBRANCH  12  15
ENDBRANCH   7  11
BRANCH   1  29
ATOM     29  C   UNL     1      29.608   9.946  -4.801  1.00  0.00     0.027 C
ATOM     30  C   UNL     1      28.803   8.692  -5.151  1.00  0.00     0.016 C
ATOM     31  C   UNL     1      29.523   9.421  -6.236  1.00  0.00     0.016 C
BRANCH  29  32
ATOM     32  C   UNL     1      28.886  11.258  -4.496  1.00  0.00     0.096 C
BRANCH  32  33
ATOM     33  N   UNL     1      29.166  12.351  -5.421  1.00  0.00    -0.294 NA
ATOM     34  H   UNL     1      29.680  12.023  -6.233  1.00  0.00     0.124 HD
BRANCH  33  35
ATOM     35  C   UNL     1      27.972  13.020  -5.882  1.00  0.00     0.244 C
BRANCH  35  36
ATOM     36  O   UNL     1      27.925  14.314  -5.288  1.00  0.00    -0.366 OA
BRANCH  36  37
ATOM     37  C   UNL     1      27.684  15.308  -6.280  1.00  0.00     0.164 C
ATOM     38  G   UNL     1      27.094  16.558  -5.629  1.00  0.00     0.000 C
ENDBRANCH  36  37
ENDBRANCH  35  36
ENDBRANCH  33  35
ENDBRANCH  32  33
ENDBRANCH  29  32
ENDBRANCH   1  29
TORSDOF 1
ENDMDL
MODEL 9
REMARK VINA RESULT:      -7.5      2.187      5.301
REMARK SMILES N#C[C@]12CCOCNC[C@]3(CC3)c3cnc4[nH]cc(c4n3)C(=O)N[C@H](C3CC3)C(=O)N(C1)C2
REMARK SMILES IDX 13 1 14 2 15 3 16 4 17 5 18 6 19 7 20 8 21 9 22 11 24 12
REMARK SMILES IDX 23 13 25 15 29 16 30 17 31 18 1 19 2 20 3 21 32 22 33 23
REMARK SMILES IDX 4 24 26 26 27 27 28 28 10 29 12 30 11 31 9 32 8 33 7 35 6 36
REMARK SMILES IDX 5 37
REMARK H PARENT 17 10 24 14 8 34
REMARK Flexibility Score:  115.900
ROOT
ATOM      1  C   UNL     1      33.580  11.177  -2.805  1.00  0.00     0.067 A
ATOM      2  C   UNL     1      34.144   9.916  -2.551  1.00  0.00     0.138 A
ATOM      3  N   UNL     1      33.541   8.719  -2.757  1.00  0.00    -0.235 NA
ATOM      4  C   UNL     1      32.304   8.893  -3.258  1.00  0.00     0.156 A
ATOM      5  N   UNL     1      31.433   7.895  -3.588  1.00  0.00    -0.344 N
ATOM      6  C   UNL     1      30.275   8.443  -4.076  1.00  0.00     0.100 A
ATOM      7  C   UNL     1      30.392   9.828  -4.056  1.00  0.00     0.085 A
ATOM      8  C   UNL     1      31.687  10.108  -3.532  1.00  0.00     0.120 A
ATOM      9  N   UNL     1      32.314  11.298  -3.303  1.00  0.00    -0.246 NA
ATOM     10  H   UNL     1      31.634   6.910  -3.484  1.00  0.00     0.168 HD
ENDROOT
BRANCH   7  11
ATOM     11  C   UNL     1      29.352  10.750  -4.498  1.00  0.00     0.255 C
ATOM     12  N   UNL     1      29.821  11.955  -4.956  1.00  0.00    -0.340 N
ATOM     13  O   UNL     1      28.163  10.455  -4.472  1.00  0.00    -0.269 OA
ATOM     14  H   UNL     1      30.825  12.109  -4.931  1.00  0.00     0.164 HD
BRANCH  12  15
ATOM     15  C   UNL     1      28.935  13.061  -5.289  1.00  0.00     0.175 C
BRANCH  15  16
ATOM     16  C   UNL     1      29.825  14.253  -5.729  1.00  0.00     0.245 C
ATOM     17  O   UNL     1      30.981  14.057  -6.130  1.00  0.00    -0.272 OA
BRANCH  16  18
ATOM     18  N   UNL     1      29.366  15.538  -5.697  1.00  0.00    -0.338 N
ATOM     19  N   UNL     1      28.122  19.697  -5.910  1.00  0.00    -0.198 NA
ATOM     20  C   UNL     1      28.136  18.548  -6.064  1.00  0.00     0.073 C
ATOM     21  C   UNL     1      28.155  17.106  -6.241  1.00  0.00     0.095 C
ATOM     22  C   UNL     1      29.525  16.566  -6.727  1.00  0.00     0.143 C
ATOM     23  C   UNL     1      28.451  16.342  -4.914  1.00  0.00     0.143 C
BRANCH  21  24
ATOM     24  C   UNL     1      26.903  16.646  -7.021  1.00  0.00     0.054 C
ATOM     25  G   UNL     1      26.522  17.568  -8.179  1.00  0.00     0.000 C
ENDBRANCH  21  24
ENDBRANCH  16  18
ENDBRANCH  15  16
BRANCH  15  26
ATOM     26  C   UNL     1      27.919  12.522  -6.258  1.00  0.00     0.021 C
ATOM     27  C   UNL     1      27.440  13.338  -7.435  1.00  0.00     0.006 C
ATOM     28  C   UNL     1      26.526  13.112  -6.267  1.00  0.00     0.006 C
ENDBRANCH  15  26
ENDBRANCH  12  15
ENDBRANCH   7  11
BRANCH   1  29
ATOM     29  C   UNL     1      34.388  12.453  -2.541  1.00  0.00     0.027 C
ATOM     30  C   UNL     1      35.915  12.357  -2.598  1.00  0.00     0.016 C
ATOM     31  C   UNL     1      35.241  12.474  -1.271  1.00  0.00     0.016 C
BRANCH  29  32
ATOM     32  C   UNL     1      33.688  13.754  -2.930  1.00  0.00     0.096 C
BRANCH  32  33
ATOM     33  N   UNL     1      32.678  14.223  -1.988  1.00  0.00    -0.294 NA
ATOM     34  H   UNL     1      33.107  14.640  -1.167  1.00  0.00     0.124 HD
BRANCH  33  35
ATOM     35  C   UNL     1      31.773  15.190  -2.564  1.00  0.00     0.244 C
BRANCH  35  36
ATOM     36  O   UNL     1      32.463  15.895  -3.592  1.00  0.00    -0.366 OA
BRANCH  36  37
ATOM     37  C   UNL     1      31.811  17.131  -3.871  1.00  0.00     0.164 C
ATOM     38  G   UNL     1      32.466  17.802  -5.077  1.00  0.00     0.000 C
ENDBRANCH  36  37
ENDBRANCH  35  36
ENDBRANCH  33  35
ENDBRANCH  32  33
ENDBRANCH  29  32
ENDBRANCH   1  29
TORSDOF 1
ENDMDL
