REMARK SMILES CC(C)(C)[C@H]1NC(=O)c2c[nH]c3ncc(nc23)C2(CC2)CNC[C@H]2[C@@H](C#N)CN2C1=O
REMARK SMILES IDX 9 1 10 2 11 3 12 4 13 5 14 6 15 7 16 8 17 9 7 11 6 12 8 13
REMARK SMILES IDX 5 15 2 16 1 17 3 18 4 19 30 20 31 21 29 22 28 23 24 24 25 25
REMARK SMILES IDX 26 26 27 27 18 29 19 30 20 31 21 32 22 33 23 35
REMARK H PARENT 11 10 6 14 22 34
REMARK Flexibility Score:  106.900
ROOT
ATOM      1  C   UNL     1      -0.313  -2.468  -1.287  1.00  0.00     0.085 A
ATOM      2  C   UNL     1      -0.289  -3.372  -2.340  1.00  0.00     0.100 A
ATOM      3  N   UNL     1       1.021  -3.724  -2.585  1.00  0.00    -0.344 N
ATOM      4  C   UNL     1       1.847  -3.033  -1.742  1.00  0.00     0.156 A
ATOM      5  N   UNL     1       3.195  -3.032  -1.743  1.00  0.00    -0.235 NA
ATOM      6  C   UNL     1       3.671  -2.144  -0.819  1.00  0.00     0.138 A
ATOM      7  C   UNL     1       2.896  -1.371   0.061  1.00  0.00     0.067 A
ATOM      8  N   UNL     1       1.547  -1.484   0.065  1.00  0.00    -0.246 NA
ATOM      9  C   UNL     1       1.039  -2.292  -0.898  1.00  0.00     0.120 A
ATOM     10  H   UNL     1       1.348  -4.345  -3.312  1.00  0.00     0.168 HD
ENDROOT
BRANCH   1  11
ATOM     11  C   UNL     1      -1.474  -1.757  -0.753  1.00  0.00     0.255 C
ATOM     12  N   UNL     1      -1.206  -1.103   0.419  1.00  0.00    -0.340 N
ATOM     13  O   UNL     1      -2.537  -1.728  -1.355  1.00  0.00    -0.269 OA
ATOM     14  H   UNL     1      -0.244  -1.212   0.743  1.00  0.00     0.164 HD
BRANCH  12  15
ATOM     15  C   UNL     1      -1.895  -0.035   1.146  1.00  0.00     0.177 C
BRANCH  15  16
ATOM     16  C   UNL     1      -3.453   0.080   1.162  1.00  0.00    -0.009 C
ATOM     17  C   UNL     1      -4.102  -1.295   1.424  1.00  0.00     0.013 C
ATOM     18  C   UNL     1      -4.060   0.712  -0.098  1.00  0.00     0.013 C
ATOM     19  C   UNL     1      -3.869   0.990   2.350  1.00  0.00     0.013 C
ENDBRANCH  15  16
BRANCH  15  20
ATOM     20  C   UNL     1      -1.114   1.295   0.956  1.00  0.00     0.246 C
ATOM     21  O   UNL     1      -0.917   2.044   1.921  1.00  0.00    -0.272 OA
BRANCH  20  22
ATOM     22  N   UNL     1      -0.693   1.665  -0.286  1.00  0.00    -0.334 N
ATOM     23  C   UNL     1      -0.946   1.284  -1.658  1.00  0.00     0.141 C
ATOM     24  C   UNL     1       0.197   2.773  -0.661  1.00  0.00     0.118 C
ATOM     25  C   UNL     1      -0.599   2.755  -1.996  1.00  0.00     0.136 C
ATOM     26  C   UNL     1       0.148   2.966  -3.210  1.00  0.00     0.070 C
ATOM     27  N   UNL     1       0.763   3.143  -4.177  1.00  0.00    -0.198 NA
ATOM     28  G   UNL     1       1.692   2.372  -0.679  1.00  0.00     0.000 C
ENDBRANCH  20  22
ENDBRANCH  15  20
ENDBRANCH  12  15
ENDBRANCH   1  11
BRANCH   7  29
ATOM     29  C   UNL     1       3.507  -0.320   0.989  1.00  0.00     0.027 C
ATOM     30  C   UNL     1       4.676  -0.707   1.884  1.00  0.00     0.016 C
ATOM     31  C   UNL     1       3.320  -0.507   2.489  1.00  0.00     0.016 C
BRANCH  29  32
ATOM     32  C   UNL     1       3.451   1.104   0.443  1.00  0.00     0.094 C
BRANCH  32  33
ATOM     33  N   UNL     1       2.074   1.588   0.493  1.00  0.00    -0.314 NA
ATOM     34  H   UNL     1       1.881   2.084   1.363  1.00  0.00     0.122 HD
BRANCH  33  35
ATOM     35  C   UNL     1       1.692   2.372  -0.679  1.00  0.00     0.107 C
ATOM     36  G   UNL     1       0.197   2.773  -0.661  1.00  0.00     0.000 C
ENDBRANCH  33  35
ENDBRANCH  32  33
ENDBRANCH  29  32
ENDBRANCH   7  29
TORSDOF 1
