REMARK SMILES N#C[C@H]1C[C@H]2COCC3(CC3)c3cnc4[nH]cc(c4n3)C(=O)N[C@H](C3CC3)C(=O)N2C1
REMARK SMILES IDX 12 1 13 2 14 3 15 4 16 5 17 6 18 7 19 8 20 9 21 11 23 12
REMARK SMILES IDX 22 13 24 15 28 16 29 17 30 18 1 19 2 20 3 21 4 22 31 23 5 24
REMARK SMILES IDX 25 26 26 27 27 28 9 29 10 30 11 31 8 32 7 33 6 34
REMARK H PARENT 16 10 23 14
REMARK Flexibility Score:  122.900
ROOT
ATOM      1  C   UNL     1       2.783  -1.065  -0.059  1.00  0.00     0.068 A
ATOM      2  C   UNL     1       3.816  -1.944   0.299  1.00  0.00     0.138 A
ATOM      3  N   UNL     1       3.660  -3.210   0.806  1.00  0.00    -0.235 NA
ATOM      4  C   UNL     1       2.352  -3.508   0.954  1.00  0.00     0.156 A
ATOM      5  N   UNL     1       1.800  -4.641   1.488  1.00  0.00    -0.344 N
ATOM      6  C   UNL     1       0.423  -4.514   1.522  1.00  0.00     0.100 A
ATOM      7  C   UNL     1       0.077  -3.291   0.965  1.00  0.00     0.085 A
ATOM      8  C   UNL     1       1.302  -2.684   0.605  1.00  0.00     0.120 A
ATOM      9  N   UNL     1       1.500  -1.471   0.059  1.00  0.00    -0.246 NA
ATOM     10  H   UNL     1       2.336  -5.421   1.839  1.00  0.00     0.168 HD
ENDROOT
BRANCH   7  11
ATOM     11  C   UNL     1      -1.252  -2.696   0.835  1.00  0.00     0.255 C
ATOM     12  N   UNL     1      -1.285  -1.586   0.019  1.00  0.00    -0.340 N
ATOM     13  O   UNL     1      -2.231  -3.128   1.431  1.00  0.00    -0.269 OA
ATOM     14  H   UNL     1      -0.420  -1.325  -0.449  1.00  0.00     0.164 HD
BRANCH  12  15
ATOM     15  C   UNL     1      -2.419  -0.686  -0.131  1.00  0.00     0.175 C
BRANCH  15  16
ATOM     16  C   UNL     1      -1.866   0.651  -0.744  1.00  0.00     0.245 C
ATOM     17  O   UNL     1      -1.721   0.801  -1.960  1.00  0.00    -0.272 OA
BRANCH  16  18
ATOM     18  N   UNL     1      -1.399   1.634   0.122  1.00  0.00    -0.334 N
ATOM     19  N   UNL     1      -0.476   3.286   4.454  1.00  0.00    -0.198 NA
ATOM     20  C   UNL     1      -0.863   3.198   3.364  1.00  0.00     0.067 C
ATOM     21  C   UNL     1      -1.359   3.083   1.994  1.00  0.00     0.114 C
ATOM     22  C   UNL     1      -0.373   3.605   0.956  1.00  0.00     0.048 C
ATOM     23  C   UNL     1      -1.551   1.629   1.574  1.00  0.00     0.138 C
ATOM     24  C   UNL     1      -0.826   2.920  -0.342  1.00  0.00     0.112 C
ATOM     25  G   UNL     1       0.310   2.914  -1.405  1.00  0.00     0.000 C
ENDBRANCH  16  18
ENDBRANCH  15  16
BRANCH  15  26
ATOM     26  C   UNL     1      -3.513  -1.391  -0.904  1.00  0.00     0.021 C
ATOM     27  C   UNL     1      -4.416  -0.707  -1.903  1.00  0.00     0.006 C
ATOM     28  C   UNL     1      -3.404  -1.721  -2.373  1.00  0.00     0.006 C
ENDBRANCH  15  26
ENDBRANCH  12  15
ENDBRANCH   7  11
BRANCH   1  29
ATOM     29  C   UNL     1       2.940   0.388  -0.540  1.00  0.00     0.038 C
ATOM     30  C   UNL     1       4.110   1.233  -0.070  1.00  0.00     0.017 C
ATOM     31  C   UNL     1       4.053   0.762  -1.498  1.00  0.00     0.017 C
BRANCH  29  32
ATOM     32  C   UNL     1       1.569   1.044  -0.718  1.00  0.00     0.173 C
BRANCH  32  33
ATOM     33  O   UNL     1       1.597   2.449  -0.957  1.00  0.00    -0.378 OA
BRANCH  33  34
ATOM     34  C   UNL     1       0.310   2.914  -1.405  1.00  0.00     0.185 C
ATOM     35  G   UNL     1      -0.826   2.920  -0.342  1.00  0.00     0.000 C
ENDBRANCH  33  34
ENDBRANCH  32  33
ENDBRANCH  29  32
ENDBRANCH   1  29
TORSDOF 1
