REMARK SMILES O=C1Nc2c[nH]nc2-c2nc3ccc(cc3[nH]2)CN2CCOC[C@@H]2CCOCCCC2(CC2)N1
REMARK SMILES IDX 9 1 10 2 11 3 12 4 13 5 14 6 15 7 16 8 17 9 8 11 4 12 5 13
REMARK SMILES IDX 6 14 7 15 3 17 1 18 2 19 34 20 31 23 32 24 33 25 30 26 29 27
REMARK SMILES IDX 18 29 19 30 20 31 24 32 21 33 23 34 22 35 25 36 26 37 27 38
REMARK SMILES IDX 28 39
REMARK H PARENT 17 10 6 16 3 21 34 22
REMARK Flexibility Score:   58.900
ROOT
ATOM      1  C   UNL     1       1.355   3.469  -0.337  1.00  0.00     0.161 A
ATOM      2  N   UNL     1       0.362   4.318  -0.557  1.00  0.00    -0.227 NA
ATOM      3  C   UNL     1      -0.776   3.687  -0.129  1.00  0.00     0.089 A
ATOM      4  C   UNL     1      -2.114   4.093  -0.202  1.00  0.00     0.031 A
ATOM      5  C   UNL     1      -3.104   3.222   0.275  1.00  0.00     0.007 A
ATOM      6  C   UNL     1      -2.781   1.976   0.848  1.00  0.00    -0.032 A
ATOM      7  C   UNL     1      -1.432   1.611   0.996  1.00  0.00     0.033 A
ATOM      8  C   UNL     1      -0.474   2.465   0.447  1.00  0.00     0.066 A
ATOM      9  N   UNL     1       0.885   2.363   0.314  1.00  0.00    -0.337 N
ATOM     10  H   UNL     1       1.455   1.599   0.653  1.00  0.00     0.168 HD
ENDROOT
BRANCH   1  11
ATOM     11  C   UNL     1       2.845   3.738  -0.801  1.00  0.00     0.151 A
ATOM     12  C   UNL     1       3.998   2.890  -0.922  1.00  0.00     0.092 A
ATOM     13  C   UNL     1       4.969   3.720  -1.453  1.00  0.00     0.132 A
ATOM     14  N   UNL     1       4.402   4.944  -1.603  1.00  0.00    -0.283 N
ATOM     15  N   UNL     1       3.123   4.978  -1.250  1.00  0.00    -0.170 NA
ATOM     16  H   UNL     1       4.821   5.798  -1.959  1.00  0.00     0.189 HD
BRANCH  12  17
ATOM     17  N   UNL     1       4.319   1.554  -0.739  1.00  0.00    -0.304 N
ATOM     18  O   UNL     1       2.785   0.780   0.802  1.00  0.00    -0.248 OA
ATOM     19  C   UNL     1       3.649   0.585  -0.040  1.00  0.00     0.319 C
ATOM     20  N   UNL     1       4.092  -0.676  -0.392  1.00  0.00    -0.332 N
ATOM     21  H   UNL     1       5.232   1.283  -1.073  1.00  0.00     0.172 HD
ATOM     22  H   UNL     1       4.669  -0.769  -1.215  1.00  0.00     0.165 HD
BRANCH  20  23
ATOM     23  C   UNL     1       3.677  -1.891   0.264  1.00  0.00     0.042 C
ATOM     24  C   UNL     1       4.715  -2.989   0.406  1.00  0.00     0.031 C
ATOM     25  C   UNL     1       4.286  -2.213   1.613  1.00  0.00     0.031 C
BRANCH  23  26
ATOM     26  C   UNL     1       2.235  -2.332   0.044  1.00  0.00     0.031 C
BRANCH  26  27
ATOM     27  C   UNL     1       1.822  -2.330  -1.432  1.00  0.00     0.031 C
ATOM     28  G   UNL     1       0.663  -3.287  -1.718  1.00  0.00     0.000 C
ENDBRANCH  26  27
ENDBRANCH  23  26
ENDBRANCH  20  23
ENDBRANCH  12  17
ENDBRANCH   1  11
BRANCH   6  29
ATOM     29  C   UNL     1      -3.919   1.079   1.316  1.00  0.00     0.120 C
BRANCH  29  30
ATOM     30  N   UNL     1      -3.612  -0.367   1.412  1.00  0.00    -0.291 NA
ATOM     31  C   UNL     1      -4.752  -1.079   2.023  1.00  0.00     0.113 C
ATOM     32  C   UNL     1      -3.308  -0.975   0.083  1.00  0.00     0.085 C
ATOM     33  C   UNL     1      -6.019  -1.119   1.142  1.00  0.00     0.175 C
ATOM     34  C   UNL     1      -4.493  -1.758  -0.548  1.00  0.00     0.179 C
ATOM     35  O   UNL     1      -5.743  -1.125  -0.266  1.00  0.00    -0.378 OA
BRANCH  32  36
ATOM     36  C   UNL     1      -2.098  -1.913   0.266  1.00  0.00     0.050 C
BRANCH  36  37
ATOM     37  C   UNL     1      -1.349  -2.195  -1.032  1.00  0.00     0.162 C
BRANCH  37  38
ATOM     38  O   UNL     1      -0.364  -3.185  -0.739  1.00  0.00    -0.381 OA
BRANCH  38  39
ATOM     39  C   UNL     1       0.663  -3.287  -1.718  1.00  0.00     0.160 C
ATOM     40  G   UNL     1       1.822  -2.330  -1.432  1.00  0.00     0.000 C
ENDBRANCH  38  39
ENDBRANCH  37  38
ENDBRANCH  36  37
ENDBRANCH  32  36
ENDBRANCH  29  30
ENDBRANCH   6  29
TORSDOF 0
