REMARK SMILES CN1CCN2c3ccc(cn3)-c3cnc4cccc(c4n3)-c3cc(F)c(c(F)c3)CN3CCS(=O)(=O)C[C@H]3COC[C@@H]2C1
REMARK SMILES IDX 22 1 23 2 24 3 25 4 26 5 27 6 28 7 29 8 19 9 12 10 13 11
REMARK SMILES IDX 21 12 14 13 20 14 15 15 16 16 18 17 17 18 9 19 6 20 7 21
REMARK SMILES IDX 11 22 8 23 10 24 5 25 2 26 3 27 43 28 4 29 42 30 1 31 30 33
REMARK SMILES IDX 31 34 32 35 38 36 33 37 37 38 34 39 35 40 36 41 39 42 40 43
REMARK SMILES IDX 41 44
REMARK H PARENT
REMARK Flexibility Score:   82.900
ROOT
ATOM      1  C   UNL     1       4.095  -1.204   0.217  1.00  0.00    -0.010 A
ATOM      2  C   UNL     1       3.600  -1.679   1.440  1.00  0.00     0.048 A
ATOM      3  C   UNL     1       2.526  -2.569   1.469  1.00  0.00     0.131 A
ATOM      4  F   UNL     1       2.083  -2.997   2.661  1.00  0.00    -0.207 F
ATOM      5  C   UNL     1       1.915  -3.021   0.299  1.00  0.00     0.038 A
ATOM      6  C   UNL     1       2.430  -2.567  -0.913  1.00  0.00     0.131 A
ATOM      7  F   UNL     1       1.889  -2.983  -2.067  1.00  0.00    -0.207 F
ATOM      8  C   UNL     1       3.502  -1.677  -0.964  1.00  0.00     0.048 A
ENDROOT
BRANCH   1   9
ATOM      9  C   UNL     1       5.121  -0.145   0.176  1.00  0.00     0.010 A
ATOM     10  C   UNL     1       3.094   2.709  -0.695  1.00  0.00     0.091 A
ATOM     11  C   UNL     1       4.036   3.719  -0.678  1.00  0.00     0.140 A
ATOM     12  N   UNL     1       3.459   1.435  -0.437  1.00  0.00    -0.244 NA
ATOM     13  N   UNL     1       5.348   3.488  -0.412  1.00  0.00    -0.252 NA
ATOM     14  C   UNL     1       4.745   1.170  -0.145  1.00  0.00     0.097 A
ATOM     15  C   UNL     1       5.700   2.211  -0.140  1.00  0.00     0.089 A
ATOM     16  C   UNL     1       7.019   1.899   0.164  1.00  0.00     0.030 A
ATOM     17  C   UNL     1       6.458  -0.426   0.486  1.00  0.00     0.011 A
ATOM     18  C   UNL     1       7.406   0.594   0.474  1.00  0.00     0.003 A
BRANCH  10  19
ATOM     19  C   UNL     1       1.664   2.866  -0.923  1.00  0.00     0.020 A
ATOM     20  C   UNL     1      -1.117   2.864  -1.001  1.00  0.00     0.128 A
ATOM     21  C   UNL     1      -0.406   2.026  -1.849  1.00  0.00     0.047 A
ATOM     22  N   UNL     1      -0.481   3.766  -0.221  1.00  0.00    -0.239 NA
ATOM     23  C   UNL     1       0.985   2.018  -1.801  1.00  0.00     0.016 A
ATOM     24  C   UNL     1       0.875   3.740  -0.188  1.00  0.00     0.124 A
BRANCH  20  25
ATOM     25  N   UNL     1      -2.507   2.728  -0.903  1.00  0.00    -0.349 N
ATOM     26  N   UNL     1      -4.274   3.060   1.499  1.00  0.00    -0.302 NA
ATOM     27  C   UNL     1      -3.497   4.162   0.885  1.00  0.00     0.105 C
ATOM     28  C   UNL     1      -4.292   1.863   0.633  1.00  0.00     0.111 C
ATOM     29  C   UNL     1      -3.215   3.990  -0.624  1.00  0.00     0.134 C
ATOM     30  C   UNL     1      -2.931   1.552  -0.072  1.00  0.00     0.123 C
ATOM     31  C   UNL     1      -5.631   3.477   1.839  1.00  0.00     0.105 C
ATOM     32  G   UNL     1      -3.135   0.273  -0.928  1.00  0.00     0.000 C
ENDBRANCH  20  25
ENDBRANCH  10  19
ENDBRANCH   1   9
BRANCH   5  33
ATOM     33  C   UNL     1       0.759  -3.980   0.349  1.00  0.00     0.126 C
BRANCH  33  34
ATOM     34  N   UNL     1      -0.531  -3.346   0.711  1.00  0.00    -0.292 NA
ATOM     35  C   UNL     1      -1.410  -4.282   1.422  1.00  0.00     0.101 C
ATOM     36  C   UNL     1      -1.184  -2.663  -0.438  1.00  0.00     0.098 C
ATOM     37  C   UNL     1      -1.849  -5.488   0.611  1.00  0.00     0.152 C
ATOM     38  C   UNL     1      -2.546  -3.228  -0.859  1.00  0.00     0.158 C
ATOM     39  S   UNL     1      -2.533  -4.992  -0.951  1.00  0.00     0.153 S
ATOM     40  O   UNL     1      -3.916  -5.432  -0.985  1.00  0.00    -0.229 OA
ATOM     41  O   UNL     1      -1.608  -5.388  -1.997  1.00  0.00    -0.229 OA
BRANCH  36  42
ATOM     42  C   UNL     1      -1.375  -1.160  -0.094  1.00  0.00     0.180 C
BRANCH  42  43
ATOM     43  O   UNL     1      -1.947  -0.478  -1.216  1.00  0.00    -0.378 OA
BRANCH  43  44
ATOM     44  C   UNL     1      -3.135   0.273  -0.928  1.00  0.00     0.186 C
ATOM     45  G   UNL     1      -2.931   1.552  -0.072  1.00  0.00     0.000 C
ENDBRANCH  43  44
ENDBRANCH  42  43
ENDBRANCH  36  42
ENDBRANCH  33  34
ENDBRANCH   5  33
TORSDOF 0
