REMARK SMILES CC(C)(C)[C@H]1NC(=O)c2c[nH]c3ncc(nc23)[C@]2(CC2)CSC[C@@]2(C#N)CN(C2)C1=O
REMARK SMILES IDX 9 1 10 2 11 3 12 4 13 5 14 6 15 7 16 8 17 9 7 11 6 12 8 13
REMARK SMILES IDX 5 15 2 16 1 17 3 18 4 19 30 20 31 21 28 22 29 23 27 24 24 25
REMARK SMILES IDX 25 26 26 27 18 29 19 30 20 31 21 32 22 33 23 34
REMARK H PARENT 11 10 6 14
REMARK Flexibility Score:  106.900
ROOT
ATOM      1  C   UNL     1      -0.085  -2.473  -0.972  1.00  0.00     0.085 A
ATOM      2  C   UNL     1      -0.002  -3.658  -1.695  1.00  0.00     0.100 A
ATOM      3  N   UNL     1       1.309  -4.051  -1.745  1.00  0.00    -0.344 N
ATOM      4  C   UNL     1       2.085  -3.119  -1.119  1.00  0.00     0.156 A
ATOM      5  N   UNL     1       3.429  -3.118  -1.097  1.00  0.00    -0.235 NA
ATOM      6  C   UNL     1       3.894  -1.994  -0.493  1.00  0.00     0.138 A
ATOM      7  C   UNL     1       3.113  -0.997   0.116  1.00  0.00     0.067 A
ATOM      8  N   UNL     1       1.750  -1.096   0.134  1.00  0.00    -0.246 NA
ATOM      9  C   UNL     1       1.248  -2.159  -0.563  1.00  0.00     0.120 A
ATOM     10  H   UNL     1       1.678  -4.852  -2.239  1.00  0.00     0.168 HD
ENDROOT
BRANCH   1  11
ATOM     11  C   UNL     1      -1.313  -1.701  -0.825  1.00  0.00     0.255 C
ATOM     12  N   UNL     1      -1.351  -0.875   0.268  1.00  0.00    -0.340 N
ATOM     13  O   UNL     1      -2.209  -1.761  -1.657  1.00  0.00    -0.269 OA
ATOM     14  H   UNL     1      -0.564  -0.917   0.907  1.00  0.00     0.164 HD
BRANCH  12  15
ATOM     15  C   UNL     1      -2.398   0.129   0.522  1.00  0.00     0.177 C
BRANCH  15  16
ATOM     16  C   UNL     1      -3.774  -0.441   1.014  1.00  0.00    -0.009 C
ATOM     17  C   UNL     1      -3.537  -1.544   2.073  1.00  0.00     0.013 C
ATOM     18  C   UNL     1      -4.647  -1.034  -0.104  1.00  0.00     0.013 C
ATOM     19  C   UNL     1      -4.582   0.679   1.713  1.00  0.00     0.013 C
ENDBRANCH  15  16
BRANCH  15  20
ATOM     20  C   UNL     1      -2.431   1.274  -0.558  1.00  0.00     0.245 C
ATOM     21  O   UNL     1      -3.459   1.857  -0.902  1.00  0.00    -0.272 OA
BRANCH  20  22
ATOM     22  N   UNL     1      -1.207   1.752  -0.956  1.00  0.00    -0.337 N
ATOM     23  C   UNL     1      -0.815   2.888  -1.773  1.00  0.00     0.144 C
ATOM     24  C   UNL     1       0.144   1.375  -0.650  1.00  0.00     0.144 C
ATOM     25  C   UNL     1       0.572   2.804  -1.043  1.00  0.00     0.101 C
ATOM     26  C   UNL     1       0.657   3.729   0.080  1.00  0.00     0.074 C
ATOM     27  N   UNL     1       0.761   4.454   0.980  1.00  0.00    -0.198 NA
ATOM     28  G   UNL     1       1.835   2.887  -1.902  1.00  0.00     0.000 C
ENDBRANCH  20  22
ENDBRANCH  15  20
ENDBRANCH  12  15
ENDBRANCH   1  11
BRANCH   7  29
ATOM     29  C   UNL     1       3.766   0.256   0.739  1.00  0.00     0.023 C
ATOM     30  C   UNL     1       5.157   0.172   1.362  1.00  0.00     0.015 C
ATOM     31  C   UNL     1       3.958   0.200   2.255  1.00  0.00     0.015 C
BRANCH  29  32
ATOM     32  C   UNL     1       3.315   1.614   0.200  1.00  0.00     0.083 C
BRANCH  32  33
ATOM     33  S   UNL     1       3.179   1.672  -1.612  1.00  0.00    -0.159 SA
BRANCH  33  34
ATOM     34  C   UNL     1       1.835   2.887  -1.902  1.00  0.00     0.095 C
ATOM     35  G   UNL     1       0.572   2.804  -1.043  1.00  0.00     0.000 C
ENDBRANCH  33  34
ENDBRANCH  32  33
ENDBRANCH  29  32
ENDBRANCH   7  29
TORSDOF 1
