REMARK SMILES N#C[C@H]1CCN(C(=O)[C@@H]2NC(=O)c3c[nH]c4ncc(nc34)C3(CC3)COC[C@H]3C[C@H]32)C1
REMARK SMILES IDX 13 1 14 2 15 3 16 4 17 5 18 6 19 7 20 8 21 9 11 11 10 12
REMARK SMILES IDX 12 13 9 15 7 16 8 17 6 18 1 19 2 20 3 21 4 22 31 23 5 24
REMARK SMILES IDX 30 25 29 26 28 27 22 29 23 30 24 31 25 32 26 33 27 34
REMARK H PARENT 15 10 10 14
REMARK Flexibility Score:  106.900
ROOT
ATOM      1  C   UNL     1      -0.611   2.542  -0.880  1.00  0.00     0.085 A
ATOM      2  C   UNL     1      -0.647   3.927  -0.964  1.00  0.00     0.100 A
ATOM      3  N   UNL     1      -1.884   4.359  -0.538  1.00  0.00    -0.344 N
ATOM      4  C   UNL     1      -2.645   3.283  -0.174  1.00  0.00     0.156 A
ATOM      5  N   UNL     1      -3.888   3.310   0.342  1.00  0.00    -0.235 NA
ATOM      6  C   UNL     1      -4.323   2.042   0.606  1.00  0.00     0.138 A
ATOM      7  C   UNL     1      -3.619   0.853   0.354  1.00  0.00     0.068 A
ATOM      8  N   UNL     1      -2.375   0.901  -0.178  1.00  0.00    -0.246 NA
ATOM      9  C   UNL     1      -1.894   2.146  -0.418  1.00  0.00     0.120 A
ATOM     10  H   UNL     1      -2.191   5.319  -0.466  1.00  0.00     0.168 HD
ENDROOT
BRANCH   1  11
ATOM     11  C   UNL     1       0.530   1.678  -1.155  1.00  0.00     0.255 C
ATOM     12  N   UNL     1       0.289   0.354  -0.886  1.00  0.00    -0.340 N
ATOM     13  O   UNL     1       1.613   2.100  -1.547  1.00  0.00    -0.269 OA
ATOM     14  H   UNL     1      -0.647   0.105  -0.584  1.00  0.00     0.164 HD
BRANCH  12  15
ATOM     15  C   UNL     1       1.317  -0.660  -0.888  1.00  0.00     0.175 C
BRANCH  15  16
ATOM     16  C   UNL     1       2.194  -0.480   0.384  1.00  0.00     0.245 C
ATOM     17  O   UNL     1       1.696  -0.489   1.515  1.00  0.00    -0.272 OA
BRANCH  16  18
ATOM     18  N   UNL     1       3.552  -0.298   0.216  1.00  0.00    -0.340 N
ATOM     19  N   UNL     1       7.814   0.024   2.213  1.00  0.00    -0.198 NA
ATOM     20  C   UNL     1       6.877   0.241   1.563  1.00  0.00     0.067 C
ATOM     21  C   UNL     1       5.701   0.512   0.739  1.00  0.00     0.114 C
ATOM     22  C   UNL     1       5.751  -0.196  -0.616  1.00  0.00     0.042 C
ATOM     23  C   UNL     1       4.423  -0.047   1.353  1.00  0.00     0.138 C
ATOM     24  C   UNL     1       4.288  -0.233  -1.036  1.00  0.00     0.121 C
ENDBRANCH  16  18
ENDBRANCH  15  16
BRANCH  15  25
ATOM     25  C   UNL     1       0.761  -2.068  -0.952  1.00  0.00     0.027 C
ATOM     26  C   UNL     1      -0.609  -2.383  -1.514  1.00  0.00     0.013 C
ATOM     27  C   UNL     1      -0.319  -2.687  -0.059  1.00  0.00     0.021 C
ATOM     28  G   UNL     1      -1.067  -1.991   1.039  1.00  0.00     0.000 C
ENDBRANCH  15  25
ENDBRANCH  12  15
ENDBRANCH   1  11
BRANCH   7  29
ATOM     29  C   UNL     1      -4.174  -0.536   0.667  1.00  0.00     0.038 C
ATOM     30  C   UNL     1      -5.677  -0.798   0.659  1.00  0.00     0.017 C
ATOM     31  C   UNL     1      -4.847  -1.276  -0.488  1.00  0.00     0.017 C
BRANCH  29  32
ATOM     32  C   UNL     1      -3.304  -1.367   1.608  1.00  0.00     0.173 C
BRANCH  32  33
ATOM     33  O   UNL     1      -2.459  -2.236   0.846  1.00  0.00    -0.380 OA
BRANCH  33  34
ATOM     34  C   UNL     1      -1.067  -1.991   1.039  1.00  0.00     0.164 C
ATOM     35  G   UNL     1      -0.319  -2.687  -0.059  1.00  0.00     0.000 C
ENDBRANCH  33  34
ENDBRANCH  32  33
ENDBRANCH  29  32
ENDBRANCH   7  29
TORSDOF 2
