REMARK SMILES N#CC1CN(C(=O)[C@@H]2NC(=O)c3c[nH]c4ncc(nc34)[C@]3(CCNCC[C@]24CC4)CC3)C1
REMARK SMILES IDX 12 1 13 2 14 3 15 4 16 5 17 6 18 7 19 8 20 9 10 11 9 12
REMARK SMILES IDX 11 13 8 15 6 16 1 17 2 18 3 19 4 20 32 21 5 22 7 23 27 24
REMARK SMILES IDX 29 25 28 26 26 27 21 29 31 30 30 31 22 32 23 33 24 34 25 36
REMARK H PARENT 14 10 9 14 24 35
REMARK Flexibility Score:   64.900
ROOT
ATOM      1  C   UNL     1      -0.102   2.000  -1.625  1.00  0.00     0.085 A
ATOM      2  C   UNL     1      -0.071   3.064  -2.517  1.00  0.00     0.100 A
ATOM      3  N   UNL     1       1.122   3.729  -2.363  1.00  0.00    -0.344 N
ATOM      4  C   UNL     1       1.868   3.110  -1.401  1.00  0.00     0.156 A
ATOM      5  N   UNL     1       3.113   3.448  -1.019  1.00  0.00    -0.235 NA
ATOM      6  C   UNL     1       3.573   2.580  -0.076  1.00  0.00     0.138 A
ATOM      7  C   UNL     1       2.856   1.507   0.480  1.00  0.00     0.066 A
ATOM      8  N   UNL     1       1.583   1.241   0.084  1.00  0.00    -0.246 NA
ATOM      9  C   UNL     1       1.119   2.055  -0.902  1.00  0.00     0.120 A
ATOM     10  H   UNL     1       1.435   4.531  -2.893  1.00  0.00     0.168 HD
ENDROOT
BRANCH   1  11
ATOM     11  C   UNL     1      -1.171   1.019  -1.506  1.00  0.00     0.255 C
ATOM     12  N   UNL     1      -0.973   0.097  -0.507  1.00  0.00    -0.340 N
ATOM     13  O   UNL     1      -2.166   1.040  -2.221  1.00  0.00    -0.269 OA
ATOM     14  H   UNL     1      -0.103   0.164   0.016  1.00  0.00     0.164 HD
BRANCH  12  15
ATOM     15  C   UNL     1      -1.747  -1.125  -0.357  1.00  0.00     0.178 C
BRANCH  15  16
ATOM     16  C   UNL     1      -3.296  -0.996  -0.275  1.00  0.00     0.245 C
ATOM     17  N   UNL     1      -5.503   2.477   3.581  1.00  0.00    -0.198 NA
ATOM     18  C   UNL     1      -5.155   2.145   2.525  1.00  0.00     0.069 C
ATOM     19  C   UNL     1      -4.710   1.737   1.216  1.00  0.00     0.131 C
ATOM     20  C   UNL     1      -3.271   1.192   1.152  1.00  0.00     0.140 C
ATOM     21  C   UNL     1      -5.189   0.355   0.751  1.00  0.00     0.140 C
ATOM     22  N   UNL     1      -3.808   0.093   0.383  1.00  0.00    -0.338 N
ATOM     23  O   UNL     1      -4.064  -1.912  -0.584  1.00  0.00    -0.272 OA
ENDBRANCH  15  16
BRANCH  15  24
ATOM     24  C   UNL     1      -1.119  -2.243  -1.233  1.00  0.00     0.001 C
ATOM     25  C   UNL     1      -0.996  -2.037  -2.743  1.00  0.00     0.010 C
ATOM     26  C   UNL     1      -1.950  -3.056  -2.225  1.00  0.00     0.010 C
BRANCH  24  27
ATOM     27  C   UNL     1       0.014  -3.003  -0.528  1.00  0.00     0.025 C
ATOM     28  G   UNL     1       1.419  -2.470  -0.863  1.00  0.00     0.000 C
ENDBRANCH  24  27
ENDBRANCH  15  24
ENDBRANCH  12  15
ENDBRANCH   1  11
BRANCH   7  29
ATOM     29  C   UNL     1       3.487   0.538   1.480  1.00  0.00     0.015 C
ATOM     30  C   UNL     1       3.092   0.673   2.946  1.00  0.00     0.014 C
ATOM     31  C   UNL     1       4.475   1.050   2.522  1.00  0.00     0.014 C
BRANCH  29  32
ATOM     32  C   UNL     1       3.702  -0.863   0.914  1.00  0.00     0.029 C
BRANCH  32  33
ATOM     33  C   UNL     1       2.522  -1.808   1.196  1.00  0.00     0.082 C
BRANCH  33  34
ATOM     34  N   UNL     1       2.410  -2.841   0.160  1.00  0.00    -0.317 NA
ATOM     35  H   UNL     1       2.138  -3.728   0.584  1.00  0.00     0.122 HD
BRANCH  34  36
ATOM     36  C   UNL     1       1.419  -2.470  -0.863  1.00  0.00     0.081 C
ATOM     37  G   UNL     1       0.014  -3.003  -0.528  1.00  0.00     0.000 C
ENDBRANCH  34  36
ENDBRANCH  33  34
ENDBRANCH  32  33
ENDBRANCH  29  32
ENDBRANCH   7  29
TORSDOF 1
