REMARK SMILES Fc1cc2cc(F)c1CN1CCOC[C@H]1CCC[C@H]1CNCC[C@H]1n1cc(cn1)-c1cnc3cccc-2c3n1
REMARK SMILES IDX 30 1 31 2 32 3 33 4 34 5 35 6 36 7 37 8 38 9 39 10 4 11 2 12
REMARK SMILES IDX 3 13 8 14 6 15 5 16 1 17 7 18 9 19 10 20 11 21 15 22 12 23
REMARK SMILES IDX 14 24 13 25 16 26 27 28 26 29 28 30 25 31 29 32 24 33 23 34
REMARK SMILES IDX 19 35 22 36 20 37 21 38 18 40 17 41
REMARK H PARENT 21 39
REMARK Flexibility Score:   65.900
ROOT
ATOM      1  C   UNL     1       2.248  -3.147   0.874  1.00  0.00     0.092 A
ATOM      2  C   UNL     1       2.931  -4.326   1.102  1.00  0.00     0.140 A
ATOM      3  N   UNL     1       2.304  -5.524   1.192  1.00  0.00    -0.252 NA
ATOM      4  C   UNL     1       0.964  -5.519   1.036  1.00  0.00     0.089 A
ATOM      5  C   UNL     1       0.272  -6.718   1.122  1.00  0.00     0.030 A
ATOM      6  C   UNL     1      -1.110  -6.774   0.958  1.00  0.00     0.003 A
ATOM      7  C   UNL     1      -1.817  -5.607   0.689  1.00  0.00     0.011 A
ATOM      8  C   UNL     1      -1.150  -4.373   0.593  1.00  0.00     0.010 A
ATOM      9  C   UNL     1       0.247  -4.322   0.782  1.00  0.00     0.097 A
ATOM     10  N   UNL     1       0.908  -3.144   0.711  1.00  0.00    -0.244 NA
ENDROOT
BRANCH   8  11
ATOM     11  C   UNL     1      -1.906  -3.151   0.246  1.00  0.00    -0.010 A
ATOM     12  C   UNL     1      -2.441  -0.809   0.637  1.00  0.00     0.131 A
ATOM     13  C   UNL     1      -1.850  -2.002   1.051  1.00  0.00     0.048 A
ATOM     14  C   UNL     1      -3.120  -0.718  -0.575  1.00  0.00     0.038 A
ATOM     15  C   UNL     1      -3.233  -1.878  -1.342  1.00  0.00     0.131 A
ATOM     16  C   UNL     1      -2.638  -3.076  -0.948  1.00  0.00     0.048 A
ATOM     17  F   UNL     1      -2.316   0.272   1.419  1.00  0.00    -0.207 F
ATOM     18  F   UNL     1      -3.907  -1.854  -2.501  1.00  0.00    -0.207 F
BRANCH  14  19
ATOM     19  C   UNL     1      -3.661   0.594  -1.073  1.00  0.00     0.126 C
BRANCH  19  20
ATOM     20  N   UNL     1      -2.899   1.118  -2.212  1.00  0.00    -0.291 NA
ATOM     21  C   UNL     1      -3.640   2.166  -2.936  1.00  0.00     0.113 C
ATOM     22  C   UNL     1      -1.501   1.548  -1.922  1.00  0.00     0.083 C
ATOM     23  C   UNL     1      -2.884   2.626  -4.195  1.00  0.00     0.175 C
ATOM     24  C   UNL     1      -0.845   1.917  -3.276  1.00  0.00     0.179 C
ATOM     25  O   UNL     1      -1.533   3.011  -3.903  1.00  0.00    -0.378 OA
BRANCH  22  26
ATOM     26  C   UNL     1      -1.395   2.705  -0.893  1.00  0.00     0.021 C
ATOM     27  G   UNL     1       0.025   3.192  -0.562  1.00  0.00     0.000 C
ENDBRANCH  22  26
ENDBRANCH  19  20
ENDBRANCH  14  19
ENDBRANCH   8  11
BRANCH   1  28
ATOM     28  C   UNL     1       2.897  -1.857   0.829  1.00  0.00     0.040 A
ATOM     29  C   UNL     1       2.291  -0.676   1.207  1.00  0.00     0.119 A
ATOM     30  C   UNL     1       4.196  -1.467   0.447  1.00  0.00     0.145 A
ATOM     31  N   UNL     1       3.221   0.311   1.054  1.00  0.00    -0.269 N
ATOM     32  N   UNL     1       4.399  -0.153   0.581  1.00  0.00    -0.181 NA
BRANCH  31  33
ATOM     33  C   UNL     1       3.116   1.709   1.449  1.00  0.00     0.113 C
ATOM     34  C   UNL     1       2.624   1.882   2.895  1.00  0.00     0.043 C
ATOM     35  C   UNL     1       2.337   2.619   0.460  1.00  0.00     0.028 C
ATOM     36  C   UNL     1       2.647   3.353   3.297  1.00  0.00     0.083 C
ATOM     37  C   UNL     1       2.474   4.060   0.990  1.00  0.00     0.086 C
ATOM     38  N   UNL     1       1.921   4.186   2.339  1.00  0.00    -0.316 NA
ATOM     39  H   UNL     1       1.975   5.162   2.635  1.00  0.00     0.122 HD
BRANCH  35  40
ATOM     40  C   UNL     1       0.864   2.179   0.229  1.00  0.00     0.007 C
BRANCH  40  41
ATOM     41  C   UNL     1       0.025   3.192  -0.562  1.00  0.00     0.002 C
ATOM     42  G   UNL     1      -1.395   2.705  -0.893  1.00  0.00     0.000 C
ENDBRANCH  40  41
ENDBRANCH  35  40
ENDBRANCH  31  33
ENDBRANCH   1  28
TORSDOF 0
