REMARK SMILES CC(C)(C)[C@H]1NC(=O)c2c[nH]c3ncc(nc23)C2(CC2)CSC[C@@H]2[C@@H](C#N)CN2C1=O
REMARK SMILES IDX 9 1 10 2 11 3 12 4 13 5 14 6 15 7 16 8 17 9 7 11 6 12 8 13
REMARK SMILES IDX 5 15 2 16 1 17 3 18 4 19 30 20 31 21 29 22 28 23 24 24 25 25
REMARK SMILES IDX 26 26 27 27 18 29 19 30 20 31 21 32 22 33 23 34
REMARK H PARENT 11 10 6 14
REMARK Flexibility Score:  106.900
ROOT
ATOM      1  C   UNL     1      -0.298  -2.327   1.532  1.00  0.00     0.085 A
ATOM      2  C   UNL     1      -0.280  -3.280   2.542  1.00  0.00     0.100 A
ATOM      3  N   UNL     1       1.019  -3.452   2.958  1.00  0.00    -0.344 N
ATOM      4  C   UNL     1       1.837  -2.607   2.261  1.00  0.00     0.156 A
ATOM      5  N   UNL     1       3.163  -2.454   2.436  1.00  0.00    -0.235 NA
ATOM      6  C   UNL     1       3.652  -1.515   1.579  1.00  0.00     0.138 A
ATOM      7  C   UNL     1       2.907  -0.795   0.630  1.00  0.00     0.067 A
ATOM      8  N   UNL     1       1.571  -0.993   0.503  1.00  0.00    -0.246 NA
ATOM      9  C   UNL     1       1.050  -1.919   1.351  1.00  0.00     0.120 A
ATOM     10  H   UNL     1       1.339  -4.076   3.685  1.00  0.00     0.168 HD
ENDROOT
BRANCH   1  11
ATOM     11  C   UNL     1      -1.481  -1.806   0.864  1.00  0.00     0.255 C
ATOM     12  N   UNL     1      -1.202  -1.003  -0.212  1.00  0.00    -0.340 N
ATOM     13  O   UNL     1      -2.617  -2.013   1.276  1.00  0.00    -0.269 OA
ATOM     14  H   UNL     1      -0.224  -0.888  -0.478  1.00  0.00     0.164 HD
BRANCH  12  15
ATOM     15  C   UNL     1      -2.163  -0.079  -0.816  1.00  0.00     0.177 C
BRANCH  15  16
ATOM     16  C   UNL     1      -2.643  -0.560  -2.219  1.00  0.00    -0.009 C
ATOM     17  C   UNL     1      -3.427  -1.884  -2.061  1.00  0.00     0.013 C
ATOM     18  C   UNL     1      -1.482  -0.819  -3.200  1.00  0.00     0.013 C
ATOM     19  C   UNL     1      -3.608   0.473  -2.834  1.00  0.00     0.013 C
ENDBRANCH  15  16
BRANCH  15  20
ATOM     20  C   UNL     1      -1.432   1.290  -0.763  1.00  0.00     0.246 C
ATOM     21  O   UNL     1      -1.002   1.867  -1.758  1.00  0.00    -0.272 OA
BRANCH  20  22
ATOM     22  N   UNL     1      -1.230   1.795   0.497  1.00  0.00    -0.334 N
ATOM     23  C   UNL     1      -1.812   1.514   1.792  1.00  0.00     0.141 C
ATOM     24  C   UNL     1      -0.402   2.906   0.956  1.00  0.00     0.114 C
ATOM     25  C   UNL     1      -1.266   2.881   2.244  1.00  0.00     0.135 C
ATOM     26  C   UNL     1      -2.252   3.936   2.345  1.00  0.00     0.070 C
ATOM     27  N   UNL     1      -3.038   4.782   2.453  1.00  0.00    -0.198 NA
ATOM     28  G   UNL     1       1.057   2.504   1.203  1.00  0.00     0.000 C
ENDBRANCH  20  22
ENDBRANCH  15  20
ENDBRANCH  12  15
ENDBRANCH   1  11
BRANCH   7  29
ATOM     29  C   UNL     1       3.564   0.237  -0.284  1.00  0.00     0.023 C
ATOM     30  C   UNL     1       3.491  -0.006  -1.791  1.00  0.00     0.015 C
ATOM     31  C   UNL     1       4.792  -0.203  -1.083  1.00  0.00     0.015 C
BRANCH  29  32
ATOM     32  C   UNL     1       3.532   1.669   0.225  1.00  0.00     0.083 C
BRANCH  32  33
ATOM     33  S   UNL     1       2.044   2.563  -0.314  1.00  0.00    -0.159 SA
BRANCH  33  34
ATOM     34  C   UNL     1       1.057   2.504   1.203  1.00  0.00     0.096 C
ATOM     35  G   UNL     1      -0.402   2.906   0.956  1.00  0.00     0.000 C
ENDBRANCH  33  34
ENDBRANCH  32  33
ENDBRANCH  29  32
ENDBRANCH   7  29
TORSDOF 1
