REMARK SMILES N#C[C@H]1CCN(C(=O)[C@@H]2NC(=O)c3c[nH]c4ncc(nc34)[C@@H]3C[C@@H]3CSCC23CC3)C1
REMARK SMILES IDX 13 1 14 2 15 3 16 4 17 5 18 6 19 7 20 8 21 9 11 11 10 12
REMARK SMILES IDX 12 13 9 15 7 16 8 17 6 18 1 19 2 20 3 21 4 22 31 23 5 24
REMARK SMILES IDX 28 25 29 26 30 27 22 29 23 30 24 31 25 32 26 33 27 34
REMARK H PARENT 15 10 10 14
REMARK Flexibility Score:  106.900
ROOT
ATOM      1  C   UNL     1      -0.782   2.680  -0.909  1.00  0.00     0.085 A
ATOM      2  C   UNL     1      -0.778   4.004  -1.329  1.00  0.00     0.100 A
ATOM      3  N   UNL     1      -2.069   4.480  -1.292  1.00  0.00    -0.344 N
ATOM      4  C   UNL     1      -2.910   3.492  -0.861  1.00  0.00     0.156 A
ATOM      5  N   UNL     1      -4.247   3.573  -0.724  1.00  0.00    -0.235 NA
ATOM      6  C   UNL     1      -4.754   2.386  -0.278  1.00  0.00     0.137 A
ATOM      7  C   UNL     1      -4.018   1.226   0.015  1.00  0.00     0.063 A
ATOM      8  N   UNL     1      -2.672   1.219  -0.136  1.00  0.00    -0.247 NA
ATOM      9  C   UNL     1      -2.134   2.376  -0.595  1.00  0.00     0.120 A
ATOM     10  H   UNL     1      -2.374   5.407  -1.553  1.00  0.00     0.168 HD
ENDROOT
BRANCH   1  11
ATOM     11  C   UNL     1       0.366   1.786  -0.840  1.00  0.00     0.255 C
ATOM     12  N   UNL     1       0.049   0.515  -0.431  1.00  0.00    -0.340 N
ATOM     13  O   UNL     1       1.503   2.130  -1.145  1.00  0.00    -0.269 OA
ATOM     14  H   UNL     1      -0.899   0.353  -0.104  1.00  0.00     0.164 HD
BRANCH  12  15
ATOM     15  C   UNL     1       1.012  -0.562  -0.339  1.00  0.00     0.178 C
BRANCH  15  16
ATOM     16  C   UNL     1       1.689  -0.520   1.056  1.00  0.00     0.245 C
ATOM     17  O   UNL     1       1.022  -0.584   2.094  1.00  0.00    -0.272 OA
BRANCH  16  18
ATOM     18  N   UNL     1       3.062  -0.385   1.112  1.00  0.00    -0.340 N
ATOM     19  N   UNL     1       7.212   0.920  -0.730  1.00  0.00    -0.198 NA
ATOM     20  C   UNL     1       6.395   0.367  -0.120  1.00  0.00     0.067 C
ATOM     21  C   UNL     1       5.374  -0.346   0.646  1.00  0.00     0.114 C
ATOM     22  C   UNL     1       5.132   0.258   2.028  1.00  0.00     0.042 C
ATOM     23  C   UNL     1       3.995  -0.257  -0.001  1.00  0.00     0.138 C
ATOM     24  C   UNL     1       3.750  -0.268   2.386  1.00  0.00     0.121 C
ENDBRANCH  16  18
ENDBRANCH  15  16
BRANCH  15  25
ATOM     25  C   UNL     1       0.293  -1.894  -0.631  1.00  0.00     0.009 C
ATOM     26  C   UNL     1       1.128  -2.992  -1.282  1.00  0.00     0.011 C
ATOM     27  C   UNL     1       0.124  -2.253  -2.110  1.00  0.00     0.011 C
ATOM     28  G   UNL     1      -0.698  -2.350   0.441  1.00  0.00     0.000 C
ENDBRANCH  15  25
ENDBRANCH  12  15
ENDBRANCH   1  11
BRANCH   7  29
ATOM     29  C   UNL     1      -4.698  -0.030   0.541  1.00  0.00     0.044 C
ATOM     30  C   UNL     1      -3.974  -0.847   1.591  1.00  0.00     0.015 C
ATOM     31  C   UNL     1      -4.243  -1.455   0.238  1.00  0.00     0.009 C
BRANCH  31  32
ATOM     32  C   UNL     1      -3.158  -1.799  -0.736  1.00  0.00     0.073 C
BRANCH  32  33
ATOM     33  S   UNL     1      -2.191  -3.213  -0.122  1.00  0.00    -0.161 SA
BRANCH  33  34
ATOM     34  C   UNL     1      -0.698  -2.350   0.441  1.00  0.00     0.079 C
ATOM     35  G   UNL     1       0.293  -1.894  -0.631  1.00  0.00     0.000 C
ENDBRANCH  33  34
ENDBRANCH  32  33
ENDBRANCH  31  32
ENDBRANCH   7  29
TORSDOF 2
