REMARK SMILES CN1CCN2c3ccc(cn3)-c3cnc4cccc(c4n3)-c3cc(F)c(c(F)c3)CN3CCS(=O)(=O)C[C@H]3CNC[C@@H]2C1
REMARK SMILES IDX 22 1 23 2 24 3 25 4 26 5 27 6 28 7 29 8 19 9 12 10 13 11
REMARK SMILES IDX 21 12 14 13 20 14 15 15 16 16 18 17 17 18 9 19 6 20 7 21
REMARK SMILES IDX 11 22 8 23 10 24 5 25 2 26 3 27 43 28 4 29 42 30 1 31 30 33
REMARK SMILES IDX 31 34 32 35 38 36 33 37 37 38 34 39 35 40 36 41 39 42 40 43
REMARK SMILES IDX 41 45
REMARK H PARENT 40 44
REMARK Flexibility Score:   82.900
ROOT
ATOM      1  C   UNL     1       4.016  -1.181  -0.368  1.00  0.00    -0.010 A
ATOM      2  C   UNL     1       3.324  -1.603  -1.513  1.00  0.00     0.048 A
ATOM      3  C   UNL     1       2.247  -2.486  -1.407  1.00  0.00     0.131 A
ATOM      4  F   UNL     1       1.617  -2.865  -2.527  1.00  0.00    -0.207 F
ATOM      5  C   UNL     1       1.826  -2.980  -0.174  1.00  0.00     0.038 A
ATOM      6  C   UNL     1       2.523  -2.562   0.960  1.00  0.00     0.131 A
ATOM      7  F   UNL     1       2.171  -3.024   2.169  1.00  0.00    -0.207 F
ATOM      8  C   UNL     1       3.602  -1.680   0.875  1.00  0.00     0.048 A
ENDROOT
BRANCH   1   9
ATOM      9  C   UNL     1       5.086  -0.171  -0.459  1.00  0.00     0.010 A
ATOM     10  C   UNL     1       3.247   2.850   0.261  1.00  0.00     0.091 A
ATOM     11  C   UNL     1       4.241   3.801   0.131  1.00  0.00     0.140 A
ATOM     12  N   UNL     1       3.536   1.540   0.095  1.00  0.00    -0.244 NA
ATOM     13  N   UNL     1       5.526   3.477  -0.163  1.00  0.00    -0.252 NA
ATOM     14  C   UNL     1       4.791   1.182  -0.228  1.00  0.00     0.097 A
ATOM     15  C   UNL     1       5.798   2.166  -0.350  1.00  0.00     0.089 A
ATOM     16  C   UNL     1       7.085   1.761  -0.679  1.00  0.00     0.030 A
ATOM     17  C   UNL     1       6.394  -0.547  -0.795  1.00  0.00     0.011 A
ATOM     18  C   UNL     1       7.393   0.417  -0.900  1.00  0.00     0.003 A
BRANCH  10  19
ATOM     19  C   UNL     1       1.832   3.101   0.509  1.00  0.00     0.020 A
ATOM     20  C   UNL     1      -0.947   3.207   0.557  1.00  0.00     0.128 A
ATOM     21  C   UNL     1      -0.275   2.332   1.405  1.00  0.00     0.047 A
ATOM     22  N   UNL     1      -0.269   4.112  -0.180  1.00  0.00    -0.239 NA
ATOM     23  C   UNL     1       1.112   2.274   1.376  1.00  0.00     0.016 A
ATOM     24  C   UNL     1       1.086   4.031  -0.203  1.00  0.00     0.124 A
BRANCH  20  25
ATOM     25  N   UNL     1      -2.310   3.068   0.360  1.00  0.00    -0.350 N
ATOM     26  N   UNL     1      -5.141   2.806   0.489  1.00  0.00    -0.303 NA
ATOM     27  C   UNL     1      -4.537   4.148   0.275  1.00  0.00     0.105 C
ATOM     28  C   UNL     1      -4.372   1.792  -0.263  1.00  0.00     0.110 C
ATOM     29  C   UNL     1      -3.055   4.197  -0.191  1.00  0.00     0.134 C
ATOM     30  C   UNL     1      -2.846   1.713   0.067  1.00  0.00     0.111 C
ATOM     31  C   UNL     1      -5.185   2.483   1.915  1.00  0.00     0.105 C
ATOM     32  G   UNL     1      -2.087   1.015  -1.114  1.00  0.00     0.000 C
ENDBRANCH  20  25
ENDBRANCH  10  19
ENDBRANCH   1   9
BRANCH   5  33
ATOM     33  C   UNL     1       0.692  -3.961  -0.064  1.00  0.00     0.126 C
BRANCH  33  34
ATOM     34  N   UNL     1      -0.557  -3.369   0.470  1.00  0.00    -0.293 NA
ATOM     35  C   UNL     1      -1.281  -4.315   1.326  1.00  0.00     0.101 C
ATOM     36  C   UNL     1      -1.392  -2.727  -0.584  1.00  0.00     0.085 C
ATOM     37  C   UNL     1      -1.823  -5.535   0.605  1.00  0.00     0.152 C
ATOM     38  C   UNL     1      -2.811  -3.288  -0.716  1.00  0.00     0.157 C
ATOM     39  S   UNL     1      -2.812  -5.056  -0.788  1.00  0.00     0.153 S
ATOM     40  O   UNL     1      -4.172  -5.495  -0.535  1.00  0.00    -0.229 OA
ATOM     41  O   UNL     1      -2.119  -5.462  -1.996  1.00  0.00    -0.229 OA
BRANCH  36  42
ATOM     42  C   UNL     1      -1.461  -1.197  -0.278  1.00  0.00     0.101 C
BRANCH  42  43
ATOM     43  N   UNL     1      -2.275  -0.443  -1.246  1.00  0.00    -0.313 NA
ATOM     44  H   UNL     1      -3.262  -0.674  -1.153  1.00  0.00     0.122 HD
BRANCH  43  45
ATOM     45  C   UNL     1      -2.087   1.015  -1.114  1.00  0.00     0.107 C
ATOM     46  G   UNL     1      -2.846   1.713   0.067  1.00  0.00     0.000 C
ENDBRANCH  43  45
ENDBRANCH  42  43
ENDBRANCH  36  42
ENDBRANCH  33  34
ENDBRANCH   5  33
TORSDOF 0
