REMARK SMILES Fc1cc2cc(F)c1CN1CCO[C@@H](COCC3(CCNCC3)n3cc(cn3)-c3cnc4cccc-2c4n3)C1
REMARK SMILES IDX 1 1 2 2 3 3 4 4 5 5 6 6 7 7 8 8 9 9 10 10 11 11 39 12 12 13
REMARK SMILES IDX 14 14 13 15 15 16 16 17 17 18 36 20 35 21 37 22 34 23 38 24
REMARK SMILES IDX 32 25 33 26 29 27 31 28 30 29 26 30 25 31 27 32 24 33 28 34
REMARK SMILES IDX 18 35 19 36 23 37 20 38 22 39 21 40
REMARK H PARENT 21 41
REMARK Flexibility Score:   78.900
ROOT
ATOM      1  F   UNL     1       1.476  -0.700   2.485  1.00  0.00    -0.207 F
ATOM      2  C   UNL     1       2.343  -0.415   1.502  1.00  0.00     0.131 A
ATOM      3  C   UNL     1       2.670   0.920   1.273  1.00  0.00     0.048 A
ATOM      4  C   UNL     1       3.528   1.285   0.223  1.00  0.00    -0.010 A
ATOM      5  C   UNL     1       4.100   0.253  -0.534  1.00  0.00     0.048 A
ATOM      6  C   UNL     1       3.776  -1.084  -0.279  1.00  0.00     0.131 A
ATOM      7  F   UNL     1       4.348  -2.032  -1.035  1.00  0.00    -0.207 F
ATOM      8  C   UNL     1       2.873  -1.440   0.722  1.00  0.00     0.038 A
ENDROOT
BRANCH   8   9
ATOM      9  C   UNL     1       2.472  -2.870   0.968  1.00  0.00     0.126 C
BRANCH   9  10
ATOM     10  N   UNL     1       1.711  -3.497  -0.128  1.00  0.00    -0.294 NA
ATOM     11  C   UNL     1       1.416  -4.917   0.174  1.00  0.00     0.113 C
ATOM     12  C   UNL     1       0.460  -2.768  -0.457  1.00  0.00     0.119 C
ATOM     13  C   UNL     1      -0.018  -5.148   0.680  1.00  0.00     0.176 C
ATOM     14  C   UNL     1      -0.567  -3.693  -1.149  1.00  0.00     0.158 C
ATOM     15  O   UNL     1      -1.026  -4.722  -0.247  1.00  0.00    -0.373 OA
BRANCH  14  16
ATOM     16  C   UNL     1      -1.786  -2.945  -1.719  1.00  0.00     0.193 C
BRANCH  16  17
ATOM     17  O   UNL     1      -2.415  -2.082  -0.761  1.00  0.00    -0.376 OA
BRANCH  17  18
ATOM     18  C   UNL     1      -2.275  -0.698  -1.101  1.00  0.00     0.191 C
ATOM     19  G   UNL     1      -2.971   0.231  -0.067  1.00  0.00     0.000 C
ENDBRANCH  17  18
ENDBRANCH  16  17
ENDBRANCH  14  16
ENDBRANCH   9  10
ENDBRANCH   8   9
BRANCH   4  20
ATOM     20  C   UNL     1       3.744   2.711  -0.118  1.00  0.00     0.010 A
ATOM     21  C   UNL     1       5.041   3.246  -0.171  1.00  0.00     0.011 A
ATOM     22  C   UNL     1       2.645   3.545  -0.409  1.00  0.00     0.097 A
ATOM     23  C   UNL     1       5.238   4.584  -0.499  1.00  0.00     0.003 A
ATOM     24  N   UNL     1       1.397   3.042  -0.376  1.00  0.00    -0.244 NA
ATOM     25  C   UNL     1       2.844   4.904  -0.747  1.00  0.00     0.089 A
ATOM     26  C   UNL     1       4.141   5.398  -0.783  1.00  0.00     0.030 A
ATOM     27  C   UNL     1       0.353   3.851  -0.660  1.00  0.00     0.092 A
ATOM     28  N   UNL     1       1.804   5.721  -1.034  1.00  0.00    -0.252 NA
ATOM     29  C   UNL     1       0.561   5.174  -0.988  1.00  0.00     0.140 A
BRANCH  27  30
ATOM     30  C   UNL     1      -0.940   3.204  -0.615  1.00  0.00     0.040 A
ATOM     31  C   UNL     1      -1.121   1.954  -0.063  1.00  0.00     0.119 A
ATOM     32  C   UNL     1      -2.218   3.540  -1.102  1.00  0.00     0.145 A
ATOM     33  N   UNL     1      -2.419   1.588  -0.296  1.00  0.00    -0.264 N
ATOM     34  N   UNL     1      -3.116   2.563  -0.920  1.00  0.00    -0.180 NA
BRANCH  33  35
ATOM     35  C   UNL     1      -2.971   0.231  -0.067  1.00  0.00     0.088 C
ATOM     36  C   UNL     1      -2.647  -0.201   1.393  1.00  0.00     0.048 C
ATOM     37  C   UNL     1      -4.505   0.159  -0.304  1.00  0.00     0.048 C
ATOM     38  C   UNL     1      -3.770  -1.025   2.013  1.00  0.00     0.083 C
ATOM     39  C   UNL     1      -5.272   0.594   0.939  1.00  0.00     0.083 C
ATOM     40  N   UNL     1      -5.012  -0.258   2.100  1.00  0.00    -0.317 NA
ATOM     41  H   UNL     1      -5.791  -0.902   2.243  1.00  0.00     0.122 HD
ATOM     42  G   UNL     1      -2.275  -0.698  -1.101  1.00  0.00     0.000 C
ENDBRANCH  33  35
ENDBRANCH  27  30
ENDBRANCH   4  20
TORSDOF 0
