REMARK SMILES N#C[C@@H]1CCN(C(=O)[C@@H]2NC(=O)c3c[nH]c4ncc(nc34)C3(CC3)COC[C@H]3C[C@H]32)C1
REMARK SMILES IDX 13 1 14 2 15 3 16 4 17 5 18 6 19 7 20 8 21 9 11 11 10 12
REMARK SMILES IDX 12 13 9 15 7 16 8 17 6 18 1 19 2 20 3 21 4 22 31 23 5 24
REMARK SMILES IDX 30 25 29 26 28 27 22 29 23 30 24 31 25 32 26 33 27 34
REMARK H PARENT 15 10 10 14
REMARK Flexibility Score:  106.900
ROOT
ATOM      1  C   UNL     1      -0.311   2.468  -1.023  1.00  0.00     0.085 A
ATOM      2  C   UNL     1      -0.208   3.844  -1.181  1.00  0.00     0.100 A
ATOM      3  N   UNL     1      -1.401   4.418  -0.802  1.00  0.00    -0.344 N
ATOM      4  C   UNL     1      -2.271   3.444  -0.398  1.00  0.00     0.156 A
ATOM      5  N   UNL     1      -3.514   3.621   0.091  1.00  0.00    -0.235 NA
ATOM      6  C   UNL     1      -4.077   2.417   0.409  1.00  0.00     0.138 A
ATOM      7  C   UNL     1      -3.490   1.153   0.235  1.00  0.00     0.068 A
ATOM      8  N   UNL     1      -2.239   1.049  -0.270  1.00  0.00    -0.246 NA
ATOM      9  C   UNL     1      -1.633   2.227  -0.566  1.00  0.00     0.120 A
ATOM     10  H   UNL     1      -1.611   5.406  -0.784  1.00  0.00     0.168 HD
ENDROOT
BRANCH   1  11
ATOM     11  C   UNL     1       0.742   1.483  -1.230  1.00  0.00     0.255 C
ATOM     12  N   UNL     1       0.374   0.211  -0.871  1.00  0.00    -0.340 N
ATOM     13  O   UNL     1       1.859   1.769  -1.647  1.00  0.00    -0.269 OA
ATOM     14  H   UNL     1      -0.583   0.075  -0.564  1.00  0.00     0.164 HD
BRANCH  12  15
ATOM     15  C   UNL     1       1.301  -0.893  -0.788  1.00  0.00     0.175 C
BRANCH  15  16
ATOM     16  C   UNL     1       2.152  -0.733   0.504  1.00  0.00     0.245 C
ATOM     17  O   UNL     1       1.621  -0.665   1.619  1.00  0.00    -0.272 OA
BRANCH  16  18
ATOM     18  N   UNL     1       3.526  -0.667   0.379  1.00  0.00    -0.340 N
ATOM     19  N   UNL     1       6.183   2.444   0.753  1.00  0.00    -0.198 NA
ATOM     20  C   UNL     1       5.977   1.307   0.855  1.00  0.00     0.067 C
ATOM     21  C   UNL     1       5.760  -0.141   0.990  1.00  0.00     0.114 C
ATOM     22  C   UNL     1       5.748  -0.841  -0.371  1.00  0.00     0.042 C
ATOM     23  C   UNL     1       4.371  -0.449   1.544  1.00  0.00     0.138 C
ATOM     24  C   UNL     1       4.307  -0.698  -0.845  1.00  0.00     0.121 C
ENDBRANCH  16  18
ENDBRANCH  15  16
BRANCH  15  25
ATOM     25  C   UNL     1       0.610  -2.243  -0.802  1.00  0.00     0.027 C
ATOM     26  C   UNL     1      -0.769  -2.450  -1.388  1.00  0.00     0.013 C
ATOM     27  C   UNL     1      -0.548  -2.709   0.087  1.00  0.00     0.021 C
ATOM     28  G   UNL     1      -1.248  -1.889   1.130  1.00  0.00     0.000 C
ENDBRANCH  15  25
ENDBRANCH  12  15
ENDBRANCH   1  11
BRANCH   7  29
ATOM     29  C   UNL     1      -4.187  -0.156   0.604  1.00  0.00     0.038 C
ATOM     30  C   UNL     1      -5.709  -0.269   0.571  1.00  0.00     0.017 C
ATOM     31  C   UNL     1      -4.908  -0.886  -0.529  1.00  0.00     0.017 C
BRANCH  29  32
ATOM     32  C   UNL     1      -3.424  -1.019   1.607  1.00  0.00     0.173 C
BRANCH  32  33
ATOM     33  O   UNL     1      -2.654  -2.006   0.912  1.00  0.00    -0.380 OA
BRANCH  33  34
ATOM     34  C   UNL     1      -1.248  -1.889   1.130  1.00  0.00     0.164 C
ATOM     35  G   UNL     1      -0.548  -2.709   0.087  1.00  0.00     0.000 C
ENDBRANCH  33  34
ENDBRANCH  32  33
ENDBRANCH  29  32
ENDBRANCH   7  29
TORSDOF 2
