REMARK SMILES N#C[C@H]1CCN(C(=O)[C@@H]2NC(=O)c3c[nH]c4ncc(nc34)C3(CCC[C@H]4C[C@@H]42)CC3)C1
REMARK SMILES IDX 10 1 11 2 12 3 9 5 7 6 8 7 6 8 1 9 2 10 3 11 4 12 31 13 5 14
REMARK SMILES IDX 28 15 27 16 26 17 25 18 24 19 13 21 14 22 21 23 15 24 20 25
REMARK SMILES IDX 16 26 19 27 17 28 18 29 22 31 29 32 30 33 23 34
REMARK H PARENT 10 4 15 30
REMARK Flexibility Score:   57.900
ROOT
ATOM      1  N   UNL     1       0.441   0.800   0.395  1.00  0.00    -0.340 N
ATOM      2  C   UNL     1       0.696   1.849   1.240  1.00  0.00     0.255 C
ATOM      3  O   UNL     1       1.811   2.335   1.394  1.00  0.00    -0.269 OA
ATOM      4  H   UNL     1      -0.505   0.429   0.365  1.00  0.00     0.164 HD
ENDROOT
BRANCH   1   5
ATOM      5  C   UNL     1       1.450   0.162  -0.419  1.00  0.00     0.175 C
BRANCH   5   6
ATOM      6  C   UNL     1       2.334  -0.735   0.490  1.00  0.00     0.245 C
ATOM      7  O   UNL     1       1.854  -1.431   1.390  1.00  0.00    -0.272 OA
BRANCH   6   8
ATOM      8  N   UNL     1       3.692  -0.759   0.230  1.00  0.00    -0.340 N
ATOM      9  N   UNL     1       7.632   1.064  -1.623  1.00  0.00    -0.198 NA
ATOM     10  C   UNL     1       6.828   0.318  -1.245  1.00  0.00     0.067 C
ATOM     11  C   UNL     1       5.812  -0.627  -0.785  1.00  0.00     0.114 C
ATOM     12  C   UNL     1       5.984  -1.027   0.680  1.00  0.00     0.042 C
ATOM     13  C   UNL     1       4.411  -0.023  -0.800  1.00  0.00     0.138 C
ATOM     14  C   UNL     1       4.600  -1.535   1.055  1.00  0.00     0.121 C
ENDBRANCH   6   8
ENDBRANCH   5   6
BRANCH   5  15
ATOM     15  C   UNL     1       0.713  -0.573  -1.522  1.00  0.00     0.024 C
ATOM     16  C   UNL     1       1.175  -1.884  -2.115  1.00  0.00     0.010 C
ATOM     17  C   UNL     1      -0.051  -1.852  -1.234  1.00  0.00    -0.005 C
BRANCH  17  18
ATOM     18  C   UNL     1      -1.407  -2.119  -1.825  1.00  0.00     0.004 C
BRANCH  18  19
ATOM     19  C   UNL     1      -2.547  -1.662  -0.903  1.00  0.00     0.001 C
ATOM     20  G   UNL     1      -3.264  -0.414  -1.436  1.00  0.00     0.000 C
ENDBRANCH  18  19
ENDBRANCH  17  18
ENDBRANCH   5  15
ENDBRANCH   1   5
BRANCH   2  21
ATOM     21  C   UNL     1      -0.491   2.331   1.933  1.00  0.00     0.085 A
ATOM     22  C   UNL     1      -0.534   3.237   2.985  1.00  0.00     0.100 A
ATOM     23  C   UNL     1      -1.840   1.983   1.661  1.00  0.00     0.120 A
ATOM     24  N   UNL     1      -1.848   3.414   3.354  1.00  0.00    -0.344 N
ATOM     25  N   UNL     1      -2.340   1.153   0.712  1.00  0.00    -0.246 NA
ATOM     26  C   UNL     1      -2.657   2.659   2.550  1.00  0.00     0.156 A
ATOM     27  C   UNL     1      -3.688   1.044   0.677  1.00  0.00     0.066 A
ATOM     28  N   UNL     1      -3.999   2.582   2.598  1.00  0.00    -0.235 NA
ATOM     29  C   UNL     1      -4.463   1.746   1.621  1.00  0.00     0.138 A
ATOM     30  H   UNL     1      -2.187   4.011   4.095  1.00  0.00     0.168 HD
BRANCH  27  31
ATOM     31  C   UNL     1      -4.286   0.158  -0.441  1.00  0.00     0.014 C
ATOM     32  C   UNL     1      -5.643   0.533  -1.026  1.00  0.00     0.014 C
ATOM     33  C   UNL     1      -5.522  -0.681  -0.155  1.00  0.00     0.014 C
BRANCH  31  34
ATOM     34  C   UNL     1      -3.264  -0.414  -1.436  1.00  0.00     0.013 C
ATOM     35  G   UNL     1      -2.547  -1.662  -0.903  1.00  0.00     0.000 C
ENDBRANCH  31  34
ENDBRANCH  27  31
ENDBRANCH   2  21
TORSDOF 2
