REMARK SMILES C1=C2\CCC[C@H]3CCCN3CCOc3ccc(cc3COC/1)Nc1nccc(n1)-c1ccc(s1)COC2
REMARK SMILES IDX 14 1 15 2 16 3 17 4 18 5 19 6 20 7 21 8 22 9 1 10 2 11 3 13
REMARK SMILES IDX 4 14 13 16 12 17 11 18 10 19 9 20 6 21 8 22 7 23 5 24 23 26
REMARK SMILES IDX 24 28 25 29 29 30 26 31 28 32 27 33 30 34 31 35 34 36 32 37
REMARK SMILES IDX 33 38 35 39 36 40 37 41
REMARK H PARENT 23 27
REMARK Flexibility Score:   91.800
ROOT
ATOM      1  C   UNL     1      -1.171   3.160   0.494  1.00  0.00     0.125 A
ATOM      2  C   UNL     1      -0.614   4.297  -0.091  1.00  0.00     0.049 A
ATOM      3  C   UNL     1       0.767   4.508  -0.034  1.00  0.00     0.030 A
ATOM      4  C   UNL     1       1.611   3.594   0.608  1.00  0.00     0.042 A
ATOM      5  C   UNL     1       1.030   2.472   1.212  1.00  0.00     0.036 A
ATOM      6  C   UNL     1      -0.362   2.259   1.198  1.00  0.00     0.022 A
ENDROOT
BRANCH   6   7
ATOM      7  C   UNL     1      -0.992   1.127   1.975  1.00  0.00     0.200 C
BRANCH   7   8
ATOM      8  O   UNL     1      -0.068   0.060   2.160  1.00  0.00    -0.373 OA
BRANCH   8   9
ATOM      9  C   UNL     1      -0.709  -1.187   2.379  1.00  0.00     0.188 C
BRANCH   9  10
ATOM     10  C   UNL     1       0.123  -2.229   1.707  1.00  0.00     0.003 C
ATOM     11  C   UNL     1       0.132  -2.518   0.387  1.00  0.00    -0.046 C
ATOM     12  G   UNL     1       1.047  -3.568  -0.214  1.00  0.00     0.000 C
BRANCH  11  13
ATOM     13  C   UNL     1      -0.703  -1.746  -0.621  1.00  0.00     0.033 C
BRANCH  13  14
ATOM     14  C   UNL     1      -1.984  -2.487  -1.005  1.00  0.00     0.006 C
ATOM     15  G   UNL     1      -2.800  -1.752  -2.079  1.00  0.00     0.000 C
ENDBRANCH  13  14
ENDBRANCH  11  13
ENDBRANCH   9  10
ENDBRANCH   8   9
ENDBRANCH   7   8
ENDBRANCH   6   7
BRANCH   1  16
ATOM     16  O   UNL     1      -2.522   2.934   0.473  1.00  0.00    -0.492 OA
BRANCH  16  17
ATOM     17  C   UNL     1      -3.074   2.824  -0.845  1.00  0.00     0.245 C
BRANCH  17  18
ATOM     18  C   UNL     1      -2.976   1.401  -1.454  1.00  0.00     0.126 C
BRANCH  18  19
ATOM     19  N   UNL     1      -3.587   0.275  -0.718  1.00  0.00    -0.297 NA
ATOM     20  C   UNL     1      -4.818   0.619  -0.003  1.00  0.00     0.085 C
ATOM     21  C   UNL     1      -3.952  -0.854  -1.596  1.00  0.00     0.056 C
ATOM     22  C   UNL     1      -5.354  -0.745   0.383  1.00  0.00     0.017 C
ATOM     23  C   UNL     1      -5.039  -1.618  -0.821  1.00  0.00     0.020 C
BRANCH  21  24
ATOM     24  C   UNL     1      -2.800  -1.752  -2.079  1.00  0.00     0.019 C
ATOM     25  G   UNL     1      -1.984  -2.487  -1.005  1.00  0.00     0.000 C
ENDBRANCH  21  24
ENDBRANCH  18  19
ENDBRANCH  17  18
ENDBRANCH  16  17
ENDBRANCH   1  16
BRANCH   4  26
ATOM     26  N   UNL     1       2.992   3.810   0.577  1.00  0.00    -0.324 N
ATOM     27  H   UNL     1       3.318   4.763   0.559  1.00  0.00     0.170 HD
BRANCH  26  28
ATOM     28  C   UNL     1       4.066   2.927   0.592  1.00  0.00     0.227 A
ATOM     29  N   UNL     1       5.277   3.489   0.755  1.00  0.00    -0.221 NA
ATOM     30  N   UNL     1       3.890   1.620   0.367  1.00  0.00    -0.212 NA
ATOM     31  C   UNL     1       6.347   2.674   0.715  1.00  0.00     0.117 A
ATOM     32  C   UNL     1       4.988   0.844   0.311  1.00  0.00     0.086 A
ATOM     33  C   UNL     1       6.264   1.326   0.484  1.00  0.00     0.050 A
BRANCH  32  34
ATOM     34  C   UNL     1       4.743  -0.545  -0.061  1.00  0.00     0.053 A
ATOM     35  C   UNL     1       5.045  -1.180  -1.250  1.00  0.00     0.022 A
ATOM     36  S   UNL     1       3.991  -1.612   1.044  1.00  0.00    -0.136 S
ATOM     37  C   UNL     1       4.594  -2.531  -1.271  1.00  0.00     0.018 A
ATOM     38  C   UNL     1       3.962  -2.893  -0.097  1.00  0.00     0.031 A
BRANCH  38  39
ATOM     39  C   UNL     1       3.316  -4.211   0.223  1.00  0.00     0.207 C
BRANCH  39  40
ATOM     40  O   UNL     1       2.004  -4.017   0.747  1.00  0.00    -0.372 OA
BRANCH  40  41
ATOM     41  C   UNL     1       1.047  -3.568  -0.214  1.00  0.00     0.191 C
ATOM     42  G   UNL     1       0.132  -2.518   0.387  1.00  0.00     0.000 C
ENDBRANCH  40  41
ENDBRANCH  39  40
ENDBRANCH  38  39
ENDBRANCH  32  34
ENDBRANCH  26  28
ENDBRANCH   4  26
TORSDOF 0
