MODEL 1
REMARK VINA RESULT:     -11.3      0.000      0.000
REMARK SMILES Fc1cc2cc(F)c1CN1CCOC[C@H]1CCC[C@H]1CNCC[C@H]1n1cc(cn1)-c1cnc3cccc-2c3n1
REMARK SMILES IDX 30 1 31 2 32 3 33 4 34 5 35 6 36 7 37 8 38 9 39 10 4 11 2 12
REMARK SMILES IDX 3 13 8 14 6 15 5 16 1 17 7 18 9 19 10 20 11 21 15 22 12 23
REMARK SMILES IDX 14 24 13 25 16 26 27 28 26 29 28 30 25 31 29 32 24 33 23 34
REMARK SMILES IDX 19 35 22 36 20 37 21 38 18 40 17 41
REMARK H PARENT 21 39
REMARK Flexibility Score:   65.900
ROOT
ATOM      1  C   UNL     1      32.985  13.425  -3.731  1.00  0.00     0.092 A
ATOM      2  C   UNL     1      34.145  13.822  -3.094  1.00  0.00     0.140 A
ATOM      3  N   UNL     1      34.896  12.971  -2.354  1.00  0.00    -0.252 NA
ATOM      4  C   UNL     1      34.463  11.696  -2.272  1.00  0.00     0.089 A
ATOM      5  C   UNL     1      35.193  10.784  -1.525  1.00  0.00     0.030 A
ATOM      6  C   UNL     1      34.800   9.452  -1.415  1.00  0.00     0.003 A
ATOM      7  C   UNL     1      33.657   9.017  -2.077  1.00  0.00     0.011 A
ATOM      8  C   UNL     1      32.892   9.912  -2.846  1.00  0.00     0.010 A
ATOM      9  C   UNL     1      33.286  11.264  -2.935  1.00  0.00     0.097 A
ATOM     10  N   UNL     1      32.557  12.147  -3.654  1.00  0.00    -0.244 NA
ENDROOT
BRANCH   8  11
ATOM     11  C   UNL     1      31.715   9.423  -3.595  1.00  0.00    -0.010 A
ATOM     12  C   UNL     1      29.739   9.850  -4.949  1.00  0.00     0.131 A
ATOM     13  C   UNL     1      30.759  10.308  -4.117  1.00  0.00     0.048 A
ATOM     14  C   UNL     1      29.620   8.502  -5.277  1.00  0.00     0.038 A
ATOM     15  C   UNL     1      30.530   7.614  -4.703  1.00  0.00     0.131 A
ATOM     16  C   UNL     1      31.564   8.057  -3.878  1.00  0.00     0.048 A
ATOM     17  F   UNL     1      28.881  10.743  -5.461  1.00  0.00    -0.207 F
ATOM     18  F   UNL     1      30.439   6.300  -4.957  1.00  0.00    -0.207 F
BRANCH  14  19
ATOM     19  C   UNL     1      28.589   8.023  -6.261  1.00  0.00     0.126 C
BRANCH  19  20
ATOM     20  N   UNL     1      27.472   7.329  -5.610  1.00  0.00    -0.291 NA
ATOM     21  C   UNL     1      26.166   7.809  -6.096  1.00  0.00     0.113 C
ATOM     22  C   UNL     1      27.536   5.839  -5.614  1.00  0.00     0.083 C
ATOM     23  C   UNL     1      25.003   7.160  -5.325  1.00  0.00     0.175 C
ATOM     24  C   UNL     1      26.353   5.328  -4.753  1.00  0.00     0.179 C
ATOM     25  O   UNL     1      25.093   5.728  -5.315  1.00  0.00    -0.378 OA
BRANCH  22  26
ATOM     26  C   UNL     1      27.534   5.209  -7.032  1.00  0.00     0.021 C
ATOM     27  G   UNL     1      28.907   4.821  -7.605  1.00  0.00     0.000 C
ENDBRANCH  22  26
ENDBRANCH  19  20
ENDBRANCH  14  19
ENDBRANCH   8  11
BRANCH   1  28
ATOM     28  C   UNL     1      32.147  14.333  -4.479  1.00  0.00     0.040 A
ATOM     29  C   UNL     1      32.136  15.701  -4.294  1.00  0.00     0.119 A
ATOM     30  C   UNL     1      31.211  14.121  -5.511  1.00  0.00     0.145 A
ATOM     31  N   UNL     1      31.248  16.214  -5.195  1.00  0.00    -0.269 N
ATOM     32  N   UNL     1      30.662  15.258  -5.949  1.00  0.00    -0.181 NA
BRANCH  31  33
ATOM     33  C   UNL     1      30.983  17.615  -5.492  1.00  0.00     0.113 C
ATOM     34  C   UNL     1      31.573  18.567  -4.440  1.00  0.00     0.043 C
ATOM     35  C   UNL     1      29.501  17.954  -5.813  1.00  0.00     0.028 C
ATOM     36  C   UNL     1      31.373  20.020  -4.859  1.00  0.00     0.083 C
ATOM     37  C   UNL     1      29.473  19.435  -6.236  1.00  0.00     0.086 C
ATOM     38  N   UNL     1      29.973  20.304  -5.170  1.00  0.00    -0.316 NA
ATOM     39  H   UNL     1      29.886  21.279  -5.462  1.00  0.00     0.122 HD
BRANCH  35  40
ATOM     40  C   UNL     1      28.516  17.618  -4.657  1.00  0.00     0.007 C
BRANCH  40  41
ATOM     41  C   UNL     1      27.377  16.672  -5.061  1.00  0.00     0.002 C
ATOM     42  G   UNL     1      27.279  16.422  -6.575  1.00  0.00     0.000 C
ENDBRANCH  40  41
ENDBRANCH  35  40
ENDBRANCH  31  33
ENDBRANCH   1  28
TORSDOF 0
ENDMDL
MODEL 2
REMARK VINA RESULT:     -11.1      0.963      2.068
REMARK SMILES Fc1cc2cc(F)c1CN1CCOC[C@H]1CCC[C@H]1CNCC[C@H]1n1cc(cn1)-c1cnc3cccc-2c3n1
REMARK SMILES IDX 30 1 31 2 32 3 33 4 34 5 35 6 36 7 37 8 38 9 39 10 4 11 2 12
REMARK SMILES IDX 3 13 8 14 6 15 5 16 1 17 7 18 9 19 10 20 11 21 15 22 12 23
REMARK SMILES IDX 14 24 13 25 16 26 27 28 26 29 28 30 25 31 29 32 24 33 23 34
REMARK SMILES IDX 19 35 22 36 20 37 21 38 18 40 17 41
REMARK H PARENT 21 39
REMARK Flexibility Score:   65.900
ROOT
ATOM      1  C   UNL     1      33.081  13.397  -3.650  1.00  0.00     0.092 A
ATOM      2  C   UNL     1      34.250  13.768  -3.014  1.00  0.00     0.140 A
ATOM      3  N   UNL     1      34.991  12.896  -2.288  1.00  0.00    -0.252 NA
ATOM      4  C   UNL     1      34.539  11.627  -2.220  1.00  0.00     0.089 A
ATOM      5  C   UNL     1      35.258  10.695  -1.487  1.00  0.00     0.030 A
ATOM      6  C   UNL     1      34.844   9.368  -1.391  1.00  0.00     0.003 A
ATOM      7  C   UNL     1      33.691   8.960  -2.054  1.00  0.00     0.011 A
ATOM      8  C   UNL     1      32.937   9.876  -2.808  1.00  0.00     0.010 A
ATOM      9  C   UNL     1      33.351  11.222  -2.881  1.00  0.00     0.097 A
ATOM     10  N   UNL     1      32.633  12.125  -3.587  1.00  0.00    -0.244 NA
ENDROOT
BRANCH   8  11
ATOM     11  C   UNL     1      31.749   9.414  -3.556  1.00  0.00    -0.010 A
ATOM     12  C   UNL     1      29.784   9.887  -4.913  1.00  0.00     0.131 A
ATOM     13  C   UNL     1      30.815  10.322  -4.080  1.00  0.00     0.048 A
ATOM     14  C   UNL     1      29.633   8.542  -5.239  1.00  0.00     0.038 A
ATOM     15  C   UNL     1      30.521   7.633  -4.663  1.00  0.00     0.131 A
ATOM     16  C   UNL     1      31.564   8.052  -3.838  1.00  0.00     0.048 A
ATOM     17  F   UNL     1      28.949  10.800  -5.427  1.00  0.00    -0.207 F
ATOM     18  F   UNL     1      30.398   6.322  -4.915  1.00  0.00    -0.207 F
BRANCH  14  19
ATOM     19  C   UNL     1      28.591   8.087  -6.223  1.00  0.00     0.126 C
BRANCH  19  20
ATOM     20  N   UNL     1      27.591   7.204  -5.613  1.00  0.00    -0.291 NA
ATOM     21  C   UNL     1      26.330   7.911  -5.329  1.00  0.00     0.113 C
ATOM     22  C   UNL     1      27.340   5.914  -6.317  1.00  0.00     0.083 C
ATOM     23  C   UNL     1      25.331   7.009  -4.583  1.00  0.00     0.175 C
ATOM     24  C   UNL     1      26.377   5.087  -5.429  1.00  0.00     0.179 C
ATOM     25  O   UNL     1      25.120   5.762  -5.261  1.00  0.00    -0.378 OA
BRANCH  22  26
ATOM     26  C   UNL     1      26.798   6.078  -7.763  1.00  0.00     0.021 C
ATOM     27  G   UNL     1      26.536   4.778  -8.541  1.00  0.00     0.000 C
ENDBRANCH  22  26
ENDBRANCH  19  20
ENDBRANCH  14  19
ENDBRANCH   8  11
BRANCH   1  28
ATOM     28  C   UNL     1      32.254  14.328  -4.382  1.00  0.00     0.040 A
ATOM     29  C   UNL     1      31.931  15.592  -3.931  1.00  0.00     0.119 A
ATOM     30  C   UNL     1      31.617  14.240  -5.636  1.00  0.00     0.145 A
ATOM     31  N   UNL     1      31.168  16.173  -4.901  1.00  0.00    -0.269 N
ATOM     32  N   UNL     1      30.956  15.356  -5.957  1.00  0.00    -0.181 NA
BRANCH  31  33
ATOM     33  C   UNL     1      30.695  17.550  -4.964  1.00  0.00     0.113 C
ATOM     34  C   UNL     1      29.522  17.731  -5.940  1.00  0.00     0.043 C
ATOM     35  C   UNL     1      31.801  18.619  -5.182  1.00  0.00     0.028 C
ATOM     36  C   UNL     1      28.989  19.159  -5.879  1.00  0.00     0.083 C
ATOM     37  C   UNL     1      31.111  19.993  -5.069  1.00  0.00     0.086 C
ATOM     38  N   UNL     1      30.055  20.142  -6.071  1.00  0.00    -0.316 NA
ATOM     39  H   UNL     1      29.660  21.082  -6.005  1.00  0.00     0.122 HD
BRANCH  35  40
ATOM     40  C   UNL     1      32.602  18.433  -6.501  1.00  0.00     0.007 C
BRANCH  40  41
ATOM     41  C   UNL     1      34.087  18.805  -6.389  1.00  0.00     0.002 C
ATOM     42  G   UNL     1      34.391  20.274  -6.721  1.00  0.00     0.000 C
ENDBRANCH  40  41
ENDBRANCH  35  40
ENDBRANCH  31  33
ENDBRANCH   1  28
TORSDOF 0
ENDMDL
MODEL 3
REMARK VINA RESULT:     -11.1      3.540      9.730
REMARK SMILES Fc1cc2cc(F)c1CN1CCOC[C@H]1CCC[C@H]1CNCC[C@H]1n1cc(cn1)-c1cnc3cccc-2c3n1
REMARK SMILES IDX 30 1 31 2 32 3 33 4 34 5 35 6 36 7 37 8 38 9 39 10 4 11 2 12
REMARK SMILES IDX 3 13 8 14 6 15 5 16 1 17 7 18 9 19 10 20 11 21 15 22 12 23
REMARK SMILES IDX 14 24 13 25 16 26 27 28 26 29 28 30 25 31 29 32 24 33 23 34
REMARK SMILES IDX 19 35 22 36 20 37 21 38 18 40 17 41
REMARK H PARENT 21 39
REMARK Flexibility Score:   65.900
ROOT
ATOM      1  C   UNL     1      32.017   9.381  -3.394  1.00  0.00     0.092 A
ATOM      2  C   UNL     1      32.762   8.426  -2.730  1.00  0.00     0.140 A
ATOM      3  N   UNL     1      33.889   8.731  -2.042  1.00  0.00    -0.252 NA
ATOM      4  C   UNL     1      34.253  10.030  -2.023  1.00  0.00     0.089 A
ATOM      5  C   UNL     1      35.401  10.397  -1.335  1.00  0.00     0.030 A
ATOM      6  C   UNL     1      35.819  11.724  -1.273  1.00  0.00     0.003 A
ATOM      7  C   UNL     1      35.066  12.711  -1.900  1.00  0.00     0.011 A
ATOM      8  C   UNL     1      33.896  12.378  -2.605  1.00  0.00     0.010 A
ATOM      9  C   UNL     1      33.492  11.028  -2.682  1.00  0.00     0.097 A
ATOM     10  N   UNL     1      32.379  10.682  -3.368  1.00  0.00    -0.244 NA
ENDROOT
BRANCH   8  11
ATOM     11  C   UNL     1      33.073  13.444  -3.214  1.00  0.00    -0.010 A
ATOM     12  C   UNL     1      31.865  15.549  -3.037  1.00  0.00     0.131 A
ATOM     13  C   UNL     1      32.508  14.467  -2.437  1.00  0.00     0.048 A
ATOM     14  C   UNL     1      31.744  15.645  -4.420  1.00  0.00     0.038 A
ATOM     15  C   UNL     1      32.247  14.594  -5.188  1.00  0.00     0.131 A
ATOM     16  C   UNL     1      32.903  13.511  -4.605  1.00  0.00     0.048 A
ATOM     17  F   UNL     1      31.387  16.524  -2.252  1.00  0.00    -0.207 F
ATOM     18  F   UNL     1      32.125  14.620  -6.523  1.00  0.00    -0.207 F
BRANCH  14  19
ATOM     19  C   UNL     1      31.150  16.864  -5.072  1.00  0.00     0.126 C
BRANCH  19  20
ATOM     20  N   UNL     1      32.148  17.912  -5.315  1.00  0.00    -0.291 NA
ATOM     21  C   UNL     1      32.777  17.777  -6.641  1.00  0.00     0.113 C
ATOM     22  C   UNL     1      31.699  19.312  -5.071  1.00  0.00     0.083 C
ATOM     23  C   UNL     1      33.903  18.808  -6.840  1.00  0.00     0.175 C
ATOM     24  C   UNL     1      32.938  20.227  -5.240  1.00  0.00     0.179 C
ATOM     25  O   UNL     1      33.461  20.147  -6.575  1.00  0.00    -0.378 OA
BRANCH  22  26
ATOM     26  C   UNL     1      30.518  19.765  -5.970  1.00  0.00     0.021 C
ATOM     27  G   UNL     1      30.184  21.265  -5.949  1.00  0.00     0.000 C
ENDBRANCH  22  26
ENDBRANCH  19  20
ENDBRANCH  14  19
ENDBRANCH   8  11
BRANCH   1  28
ATOM     28  C   UNL     1      30.844   9.063  -4.175  1.00  0.00     0.040 A
ATOM     29  C   UNL     1      30.573   7.808  -4.681  1.00  0.00     0.119 A
ATOM     30  C   UNL     1      29.747   9.843  -4.590  1.00  0.00     0.145 A
ATOM     31  N   UNL     1      29.375   7.894  -5.329  1.00  0.00    -0.269 N
ATOM     32  N   UNL     1      28.852   9.140  -5.291  1.00  0.00    -0.181 NA
BRANCH  31  33
ATOM     33  C   UNL     1      28.592   6.813  -5.910  1.00  0.00     0.113 C
ATOM     34  C   UNL     1      29.411   5.528  -6.111  1.00  0.00     0.043 C
ATOM     35  C   UNL     1      27.786   7.190  -7.184  1.00  0.00     0.028 C
ATOM     36  C   UNL     1      28.519   4.395  -6.607  1.00  0.00     0.083 C
ATOM     37  C   UNL     1      26.927   5.960  -7.539  1.00  0.00     0.086 C
ATOM     38  N   UNL     1      27.761   4.785  -7.795  1.00  0.00    -0.316 NA
ATOM     39  H   UNL     1      27.165   4.007  -8.084  1.00  0.00     0.122 HD
BRANCH  35  40
ATOM     40  C   UNL     1      28.670   7.692  -8.360  1.00  0.00     0.007 C
BRANCH  40  41
ATOM     41  C   UNL     1      28.123   8.942  -9.063  1.00  0.00     0.002 C
ATOM     42  G   UNL     1      28.074   8.826 -10.596  1.00  0.00     0.000 C
ENDBRANCH  40  41
ENDBRANCH  35  40
ENDBRANCH  31  33
ENDBRANCH   1  28
TORSDOF 0
ENDMDL
MODEL 4
REMARK VINA RESULT:     -11.0      0.863      1.043
REMARK SMILES Fc1cc2cc(F)c1CN1CCOC[C@H]1CCC[C@H]1CNCC[C@H]1n1cc(cn1)-c1cnc3cccc-2c3n1
REMARK SMILES IDX 30 1 31 2 32 3 33 4 34 5 35 6 36 7 37 8 38 9 39 10 4 11 2 12
REMARK SMILES IDX 3 13 8 14 6 15 5 16 1 17 7 18 9 19 10 20 11 21 15 22 12 23
REMARK SMILES IDX 14 24 13 25 16 26 27 28 26 29 28 30 25 31 29 32 24 33 23 34
REMARK SMILES IDX 19 35 22 36 20 37 21 38 18 40 17 41
REMARK H PARENT 21 39
REMARK Flexibility Score:   65.900
ROOT
ATOM      1  C   UNL     1      32.528  13.220  -3.937  1.00  0.00     0.092 A
ATOM      2  C   UNL     1      33.698  13.572  -3.292  1.00  0.00     0.140 A
ATOM      3  N   UNL     1      34.432  12.683  -2.579  1.00  0.00    -0.252 NA
ATOM      4  C   UNL     1      33.971  11.416  -2.535  1.00  0.00     0.089 A
ATOM      5  C   UNL     1      34.683  10.466  -1.817  1.00  0.00     0.030 A
ATOM      6  C   UNL     1      34.261   9.141  -1.746  1.00  0.00     0.003 A
ATOM      7  C   UNL     1      33.108   8.751  -2.419  1.00  0.00     0.011 A
ATOM      8  C   UNL     1      32.361   9.685  -3.158  1.00  0.00     0.010 A
ATOM      9  C   UNL     1      32.784  11.030  -3.207  1.00  0.00     0.097 A
ATOM     10  N   UNL     1      32.072  11.950  -3.898  1.00  0.00    -0.244 NA
ENDROOT
BRANCH   8  11
ATOM     11  C   UNL     1      31.172   9.243  -3.918  1.00  0.00    -0.010 A
ATOM     12  C   UNL     1      29.111   9.751  -5.108  1.00  0.00     0.131 A
ATOM     13  C   UNL     1      30.149  10.141  -4.263  1.00  0.00     0.048 A
ATOM     14  C   UNL     1      29.041   8.459  -5.624  1.00  0.00     0.038 A
ATOM     15  C   UNL     1      30.021   7.550  -5.226  1.00  0.00     0.131 A
ATOM     16  C   UNL     1      31.072   7.927  -4.391  1.00  0.00     0.048 A
ATOM     17  F   UNL     1      28.186  10.660  -5.447  1.00  0.00    -0.207 F
ATOM     18  F   UNL     1      29.981   6.284  -5.665  1.00  0.00    -0.207 F
BRANCH  14  19
ATOM     19  C   UNL     1      27.985   8.071  -6.622  1.00  0.00     0.126 C
BRANCH  19  20
ATOM     20  N   UNL     1      26.678   7.842  -5.994  1.00  0.00    -0.291 NA
ATOM     21  C   UNL     1      25.626   7.581  -6.992  1.00  0.00     0.113 C
ATOM     22  C   UNL     1      26.646   6.832  -4.898  1.00  0.00     0.083 C
ATOM     23  C   UNL     1      24.240   7.459  -6.333  1.00  0.00     0.175 C
ATOM     24  C   UNL     1      25.223   6.864  -4.288  1.00  0.00     0.179 C
ATOM     25  O   UNL     1      24.233   6.503  -5.264  1.00  0.00    -0.378 OA
BRANCH  22  26
ATOM     26  C   UNL     1      27.053   5.402  -5.343  1.00  0.00     0.021 C
ATOM     27  G   UNL     1      26.768   4.271  -4.342  1.00  0.00     0.000 C
ENDBRANCH  22  26
ENDBRANCH  19  20
ENDBRANCH  14  19
ENDBRANCH   8  11
BRANCH   1  28
ATOM     28  C   UNL     1      31.708  14.168  -4.655  1.00  0.00     0.040 A
ATOM     29  C   UNL     1      31.764  15.534  -4.465  1.00  0.00     0.119 A
ATOM     30  C   UNL     1      30.733  14.003  -5.659  1.00  0.00     0.145 A
ATOM     31  N   UNL     1      30.872  16.090  -5.335  1.00  0.00    -0.269 N
ATOM     32  N   UNL     1      30.222  15.165  -6.076  1.00  0.00    -0.181 NA
BRANCH  31  33
ATOM     33  C   UNL     1      30.660  17.503  -5.619  1.00  0.00     0.113 C
ATOM     34  C   UNL     1      31.263  18.421  -4.544  1.00  0.00     0.043 C
ATOM     35  C   UNL     1      29.196  17.896  -5.960  1.00  0.00     0.028 C
ATOM     36  C   UNL     1      31.120  19.885  -4.947  1.00  0.00     0.083 C
ATOM     37  C   UNL     1      29.225  19.383  -6.365  1.00  0.00     0.086 C
ATOM     38  N   UNL     1      29.736  20.221  -5.279  1.00  0.00    -0.316 NA
ATOM     39  H   UNL     1      29.687  21.202  -5.559  1.00  0.00     0.122 HD
BRANCH  35  40
ATOM     40  C   UNL     1      28.180  17.580  -4.827  1.00  0.00     0.007 C
BRANCH  40  41
ATOM     41  C   UNL     1      26.918  16.849  -5.304  1.00  0.00     0.002 C
ATOM     42  G   UNL     1      26.873  15.361  -4.919  1.00  0.00     0.000 C
ENDBRANCH  40  41
ENDBRANCH  35  40
ENDBRANCH  31  33
ENDBRANCH   1  28
TORSDOF 0
ENDMDL
MODEL 5
REMARK VINA RESULT:     -10.9      1.378      2.434
REMARK SMILES Fc1cc2cc(F)c1CN1CCOC[C@H]1CCC[C@H]1CNCC[C@H]1n1cc(cn1)-c1cnc3cccc-2c3n1
REMARK SMILES IDX 30 1 31 2 32 3 33 4 34 5 35 6 36 7 37 8 38 9 39 10 4 11 2 12
REMARK SMILES IDX 3 13 8 14 6 15 5 16 1 17 7 18 9 19 10 20 11 21 15 22 12 23
REMARK SMILES IDX 14 24 13 25 16 26 27 28 26 29 28 30 25 31 29 32 24 33 23 34
REMARK SMILES IDX 19 35 22 36 20 37 21 38 18 40 17 41
REMARK H PARENT 21 39
REMARK Flexibility Score:   65.900
ROOT
ATOM      1  C   UNL     1      33.022  13.552  -3.775  1.00  0.00     0.092 A
ATOM      2  C   UNL     1      34.152  13.931  -3.075  1.00  0.00     0.140 A
ATOM      3  N   UNL     1      34.870  13.060  -2.325  1.00  0.00    -0.252 NA
ATOM      4  C   UNL     1      34.435  11.783  -2.299  1.00  0.00     0.089 A
ATOM      5  C   UNL     1      35.132  10.851  -1.545  1.00  0.00     0.030 A
ATOM      6  C   UNL     1      34.736   9.517  -1.490  1.00  0.00     0.003 A
ATOM      7  C   UNL     1      33.625   9.100  -2.216  1.00  0.00     0.011 A
ATOM      8  C   UNL     1      32.895  10.016  -2.993  1.00  0.00     0.010 A
ATOM      9  C   UNL     1      33.290  11.370  -3.026  1.00  0.00     0.097 A
ATOM     10  N   UNL     1      32.593  12.272  -3.753  1.00  0.00    -0.244 NA
ENDROOT
BRANCH   8  11
ATOM     11  C   UNL     1      31.754   9.547  -3.808  1.00  0.00    -0.010 A
ATOM     12  C   UNL     1      30.339   7.746  -4.632  1.00  0.00     0.131 A
ATOM     13  C   UNL     1      31.500   8.178  -3.993  1.00  0.00     0.048 A
ATOM     14  C   UNL     1      29.401   8.651  -5.123  1.00  0.00     0.038 A
ATOM     15  C   UNL     1      29.687  10.011  -4.999  1.00  0.00     0.131 A
ATOM     16  C   UNL     1      30.839  10.459  -4.352  1.00  0.00     0.048 A
ATOM     17  F   UNL     1      30.120   6.428  -4.739  1.00  0.00    -0.207 F
ATOM     18  F   UNL     1      28.835  10.924  -5.486  1.00  0.00    -0.207 F
BRANCH  14  19
ATOM     19  C   UNL     1      28.098   8.185  -5.712  1.00  0.00     0.126 C
BRANCH  19  20
ATOM     20  N   UNL     1      28.238   7.745  -7.105  1.00  0.00    -0.291 NA
ATOM     21  C   UNL     1      27.419   6.554  -7.392  1.00  0.00     0.113 C
ATOM     22  C   UNL     1      28.047   8.795  -8.146  1.00  0.00     0.083 C
ATOM     23  C   UNL     1      27.662   6.031  -8.819  1.00  0.00     0.175 C
ATOM     24  C   UNL     1      28.387   8.152  -9.514  1.00  0.00     0.179 C
ATOM     25  O   UNL     1      27.500   7.060  -9.806  1.00  0.00    -0.378 OA
BRANCH  22  26
ATOM     26  C   UNL     1      26.636   9.440  -8.143  1.00  0.00     0.021 C
ATOM     27  G   UNL     1      26.567  10.928  -8.522  1.00  0.00     0.000 C
ENDBRANCH  22  26
ENDBRANCH  19  20
ENDBRANCH  14  19
ENDBRANCH   8  11
BRANCH   1  28
ATOM     28  C   UNL     1      32.217  14.480  -4.534  1.00  0.00     0.040 A
ATOM     29  C   UNL     1      32.182  15.840  -4.299  1.00  0.00     0.119 A
ATOM     30  C   UNL     1      31.344  14.299  -5.625  1.00  0.00     0.145 A
ATOM     31  N   UNL     1      31.340  16.379  -5.229  1.00  0.00    -0.269 N
ATOM     32  N   UNL     1      30.808  15.447  -6.051  1.00  0.00    -0.181 NA
BRANCH  31  33
ATOM     33  C   UNL     1      31.076  17.787  -5.488  1.00  0.00     0.113 C
ATOM     34  C   UNL     1      31.612  18.706  -4.378  1.00  0.00     0.043 C
ATOM     35  C   UNL     1      29.607  18.128  -5.862  1.00  0.00     0.028 C
ATOM     36  C   UNL     1      31.419  20.171  -4.754  1.00  0.00     0.083 C
ATOM     37  C   UNL     1      29.585  19.623  -6.234  1.00  0.00     0.086 C
ATOM     38  N   UNL     1      30.031  20.457  -5.117  1.00  0.00    -0.316 NA
ATOM     39  H   UNL     1      29.949  21.441  -5.378  1.00  0.00     0.122 HD
BRANCH  35  40
ATOM     40  C   UNL     1      28.576  17.745  -4.764  1.00  0.00     0.007 C
BRANCH  40  41
ATOM     41  C   UNL     1      27.355  16.979  -5.292  1.00  0.00     0.002 C
ATOM     42  G   UNL     1      27.353  15.483  -4.937  1.00  0.00     0.000 C
ENDBRANCH  40  41
ENDBRANCH  35  40
ENDBRANCH  31  33
ENDBRANCH   1  28
TORSDOF 0
ENDMDL
MODEL 6
REMARK VINA RESULT:     -10.8      3.425      9.418
REMARK SMILES Fc1cc2cc(F)c1CN1CCOC[C@H]1CCC[C@H]1CNCC[C@H]1n1cc(cn1)-c1cnc3cccc-2c3n1
REMARK SMILES IDX 30 1 31 2 32 3 33 4 34 5 35 6 36 7 37 8 38 9 39 10 4 11 2 12
REMARK SMILES IDX 3 13 8 14 6 15 5 16 1 17 7 18 9 19 10 20 11 21 15 22 12 23
REMARK SMILES IDX 14 24 13 25 16 26 27 28 26 29 28 30 25 31 29 32 24 33 23 34
REMARK SMILES IDX 19 35 22 36 20 37 21 38 18 40 17 41
REMARK H PARENT 21 39
REMARK Flexibility Score:   65.900
ROOT
ATOM      1  C   UNL     1      31.791   9.565  -3.488  1.00  0.00     0.092 A
ATOM      2  C   UNL     1      32.463   8.515  -2.892  1.00  0.00     0.140 A
ATOM      3  N   UNL     1      33.622   8.687  -2.211  1.00  0.00    -0.252 NA
ATOM      4  C   UNL     1      34.095   9.948  -2.128  1.00  0.00     0.089 A
ATOM      5  C   UNL     1      35.280  10.179  -1.445  1.00  0.00     0.030 A
ATOM      6  C   UNL     1      35.808  11.461  -1.318  1.00  0.00     0.003 A
ATOM      7  C   UNL     1      35.131  12.541  -1.875  1.00  0.00     0.011 A
ATOM      8  C   UNL     1      33.926  12.346  -2.574  1.00  0.00     0.010 A
ATOM      9  C   UNL     1      33.410  11.041  -2.717  1.00  0.00     0.097 A
ATOM     10  N   UNL     1      32.261  10.827  -3.399  1.00  0.00    -0.244 NA
ENDROOT
BRANCH   8  11
ATOM     11  C   UNL     1      33.187  13.509  -3.107  1.00  0.00    -0.010 A
ATOM     12  C   UNL     1      32.226  14.730  -4.981  1.00  0.00     0.131 A
ATOM     13  C   UNL     1      33.052  13.720  -4.489  1.00  0.00     0.048 A
ATOM     14  C   UNL     1      31.523  15.574  -4.126  1.00  0.00     0.038 A
ATOM     15  C   UNL     1      31.712  15.407  -2.753  1.00  0.00     0.131 A
ATOM     16  C   UNL     1      32.524  14.394  -2.245  1.00  0.00     0.048 A
ATOM     17  F   UNL     1      32.092  14.857  -6.308  1.00  0.00    -0.207 F
ATOM     18  F   UNL     1      31.086  16.216  -1.886  1.00  0.00    -0.207 F
BRANCH  14  19
ATOM     19  C   UNL     1      30.548  16.590  -4.654  1.00  0.00     0.126 C
BRANCH  19  20
ATOM     20  N   UNL     1      31.097  17.951  -4.645  1.00  0.00    -0.291 NA
ATOM     21  C   UNL     1      32.287  18.071  -5.505  1.00  0.00     0.113 C
ATOM     22  C   UNL     1      30.126  19.050  -4.910  1.00  0.00     0.083 C
ATOM     23  C   UNL     1      32.924  19.468  -5.398  1.00  0.00     0.175 C
ATOM     24  C   UNL     1      30.879  20.388  -4.704  1.00  0.00     0.179 C
ATOM     25  O   UNL     1      31.970  20.515  -5.630  1.00  0.00    -0.378 OA
BRANCH  22  26
ATOM     26  C   UNL     1      29.451  18.975  -6.306  1.00  0.00     0.021 C
ATOM     27  G   UNL     1      28.636  20.207  -6.734  1.00  0.00     0.000 C
ENDBRANCH  22  26
ENDBRANCH  19  20
ENDBRANCH  14  19
ENDBRANCH   8  11
BRANCH   1  28
ATOM     28  C   UNL     1      30.584   9.389  -4.262  1.00  0.00     0.040 A
ATOM     29  C   UNL     1      30.258   8.225  -4.927  1.00  0.00     0.119 A
ATOM     30  C   UNL     1      29.498  10.247  -4.524  1.00  0.00     0.145 A
ATOM     31  N   UNL     1      29.042   8.432  -5.512  1.00  0.00    -0.269 N
ATOM     32  N   UNL     1      28.559   9.673  -5.282  1.00  0.00    -0.181 NA
BRANCH  31  33
ATOM     33  C   UNL     1      28.207   7.463  -6.208  1.00  0.00     0.113 C
ATOM     34  C   UNL     1      28.855   6.071  -6.290  1.00  0.00     0.043 C
ATOM     35  C   UNL     1      27.661   7.929  -7.586  1.00  0.00     0.028 C
ATOM     36  C   UNL     1      27.893   5.068  -6.919  1.00  0.00     0.083 C
ATOM     37  C   UNL     1      26.698   6.827  -8.071  1.00  0.00     0.086 C
ATOM     38  N   UNL     1      27.383   5.541  -8.205  1.00  0.00    -0.316 NA
ATOM     39  H   UNL     1      26.732   4.851  -8.582  1.00  0.00     0.122 HD
BRANCH  35  40
ATOM     40  C   UNL     1      28.772   8.280  -8.615  1.00  0.00     0.007 C
BRANCH  40  41
ATOM     41  C   UNL     1      28.239   8.740  -9.979  1.00  0.00     0.002 C
ATOM     42  G   UNL     1      27.372  10.008  -9.917  1.00  0.00     0.000 C
ENDBRANCH  40  41
ENDBRANCH  35  40
ENDBRANCH  31  33
ENDBRANCH   1  28
TORSDOF 0
ENDMDL
MODEL 7
REMARK VINA RESULT:     -10.8      3.484      9.523
REMARK SMILES Fc1cc2cc(F)c1CN1CCOC[C@H]1CCC[C@H]1CNCC[C@H]1n1cc(cn1)-c1cnc3cccc-2c3n1
REMARK SMILES IDX 30 1 31 2 32 3 33 4 34 5 35 6 36 7 37 8 38 9 39 10 4 11 2 12
REMARK SMILES IDX 3 13 8 14 6 15 5 16 1 17 7 18 9 19 10 20 11 21 15 22 12 23
REMARK SMILES IDX 14 24 13 25 16 26 27 28 26 29 28 30 25 31 29 32 24 33 23 34
REMARK SMILES IDX 19 35 22 36 20 37 21 38 18 40 17 41
REMARK H PARENT 21 39
REMARK Flexibility Score:   65.900
ROOT
ATOM      1  C   UNL     1      31.278   9.823  -3.893  1.00  0.00     0.092 A
ATOM      2  C   UNL     1      31.863   8.698  -3.345  1.00  0.00     0.140 A
ATOM      3  N   UNL     1      33.030   8.746  -2.657  1.00  0.00    -0.252 NA
ATOM      4  C   UNL     1      33.600   9.961  -2.517  1.00  0.00     0.089 A
ATOM      5  C   UNL     1      34.797  10.067  -1.825  1.00  0.00     0.030 A
ATOM      6  C   UNL     1      35.424  11.297  -1.640  1.00  0.00     0.003 A
ATOM      7  C   UNL     1      34.836  12.451  -2.148  1.00  0.00     0.011 A
ATOM      8  C   UNL     1      33.622  12.383  -2.855  1.00  0.00     0.010 A
ATOM      9  C   UNL     1      33.005  11.131  -3.056  1.00  0.00     0.097 A
ATOM     10  N   UNL     1      31.845  11.039  -3.747  1.00  0.00    -0.244 NA
ENDROOT
BRANCH   8  11
ATOM     11  C   UNL     1      32.979  13.624  -3.336  1.00  0.00    -0.010 A
ATOM     12  C   UNL     1      32.170  15.021  -5.157  1.00  0.00     0.131 A
ATOM     13  C   UNL     1      32.910  13.930  -4.704  1.00  0.00     0.048 A
ATOM     14  C   UNL     1      31.489  15.853  -4.272  1.00  0.00     0.038 A
ATOM     15  C   UNL     1      31.613  15.587  -2.908  1.00  0.00     0.131 A
ATOM     16  C   UNL     1      32.340  14.494  -2.440  1.00  0.00     0.048 A
ATOM     17  F   UNL     1      32.095  15.241  -6.477  1.00  0.00    -0.207 F
ATOM     18  F   UNL     1      31.007  16.379  -2.011  1.00  0.00    -0.207 F
BRANCH  14  19
ATOM     19  C   UNL     1      30.601  16.962  -4.766  1.00  0.00     0.126 C
BRANCH  19  20
ATOM     20  N   UNL     1      31.263  18.271  -4.722  1.00  0.00    -0.291 NA
ATOM     21  C   UNL     1      32.423  18.333  -5.629  1.00  0.00     0.113 C
ATOM     22  C   UNL     1      30.377  19.458  -4.897  1.00  0.00     0.083 C
ATOM     23  C   UNL     1      33.178  19.666  -5.491  1.00  0.00     0.175 C
ATOM     24  C   UNL     1      31.249  20.718  -4.667  1.00  0.00     0.179 C
ATOM     25  O   UNL     1      32.308  20.798  -5.635  1.00  0.00    -0.378 OA
BRANCH  22  26
ATOM     26  C   UNL     1      29.642  19.504  -6.263  1.00  0.00     0.021 C
ATOM     27  G   UNL     1      28.123  19.275  -6.225  1.00  0.00     0.000 C
ENDBRANCH  22  26
ENDBRANCH  19  20
ENDBRANCH  14  19
ENDBRANCH   8  11
BRANCH   1  28
ATOM     28  C   UNL     1      30.063   9.777  -4.674  1.00  0.00     0.040 A
ATOM     29  C   UNL     1      29.808   8.833  -5.647  1.00  0.00     0.119 A
ATOM     30  C   UNL     1      28.905  10.579  -4.664  1.00  0.00     0.145 A
ATOM     31  N   UNL     1      28.561   9.097  -6.135  1.00  0.00    -0.269 N
ATOM     32  N   UNL     1      27.990  10.172  -5.549  1.00  0.00    -0.181 NA
BRANCH  31  33
ATOM     33  C   UNL     1      27.782   8.305  -7.077  1.00  0.00     0.113 C
ATOM     34  C   UNL     1      26.705   9.130  -7.799  1.00  0.00     0.043 C
ATOM     35  C   UNL     1      27.210   6.977  -6.509  1.00  0.00     0.028 C
ATOM     36  C   UNL     1      26.001   8.286  -8.856  1.00  0.00     0.083 C
ATOM     37  C   UNL     1      26.558   6.238  -7.695  1.00  0.00     0.086 C
ATOM     38  N   UNL     1      25.488   7.036  -8.296  1.00  0.00    -0.316 NA
ATOM     39  H   UNL     1      25.041   6.495  -9.038  1.00  0.00     0.122 HD
BRANCH  35  40
ATOM     40  C   UNL     1      26.256   7.171  -5.298  1.00  0.00     0.007 C
BRANCH  40  41
ATOM     41  C   UNL     1      25.788   5.860  -4.652  1.00  0.00     0.002 C
ATOM     42  G   UNL     1      26.895   4.801  -4.514  1.00  0.00     0.000 C
ENDBRANCH  40  41
ENDBRANCH  35  40
ENDBRANCH  31  33
ENDBRANCH   1  28
TORSDOF 0
ENDMDL
MODEL 8
REMARK VINA RESULT:     -10.7      1.645      3.072
REMARK SMILES Fc1cc2cc(F)c1CN1CCOC[C@H]1CCC[C@H]1CNCC[C@H]1n1cc(cn1)-c1cnc3cccc-2c3n1
REMARK SMILES IDX 30 1 31 2 32 3 33 4 34 5 35 6 36 7 37 8 38 9 39 10 4 11 2 12
REMARK SMILES IDX 3 13 8 14 6 15 5 16 1 17 7 18 9 19 10 20 11 21 15 22 12 23
REMARK SMILES IDX 14 24 13 25 16 26 27 28 26 29 28 30 25 31 29 32 24 33 23 34
REMARK SMILES IDX 19 35 22 36 20 37 21 38 18 40 17 41
REMARK H PARENT 21 39
REMARK Flexibility Score:   65.900
ROOT
ATOM      1  C   UNL     1      33.040  13.577  -3.753  1.00  0.00     0.092 A
ATOM      2  C   UNL     1      34.186  13.912  -3.058  1.00  0.00     0.140 A
ATOM      3  N   UNL     1      34.888  13.007  -2.333  1.00  0.00    -0.252 NA
ATOM      4  C   UNL     1      34.419  11.742  -2.327  1.00  0.00     0.089 A
ATOM      5  C   UNL     1      35.097  10.776  -1.598  1.00  0.00     0.030 A
ATOM      6  C   UNL     1      34.665   9.452  -1.565  1.00  0.00     0.003 A
ATOM      7  C   UNL     1      33.536   9.080  -2.288  1.00  0.00     0.011 A
ATOM      8  C   UNL     1      32.824  10.031  -3.039  1.00  0.00     0.010 A
ATOM      9  C   UNL     1      33.255  11.374  -3.050  1.00  0.00     0.097 A
ATOM     10  N   UNL     1      32.576  12.309  -3.752  1.00  0.00    -0.244 NA
ENDROOT
BRANCH   8  11
ATOM     11  C   UNL     1      31.662   9.609  -3.851  1.00  0.00    -0.010 A
ATOM     12  C   UNL     1      30.238   7.857  -4.760  1.00  0.00     0.131 A
ATOM     13  C   UNL     1      31.415   8.255  -4.127  1.00  0.00     0.048 A
ATOM     14  C   UNL     1      29.278   8.784  -5.156  1.00  0.00     0.038 A
ATOM     15  C   UNL     1      29.556  10.135  -4.942  1.00  0.00     0.131 A
ATOM     16  C   UNL     1      30.723  10.548  -4.300  1.00  0.00     0.048 A
ATOM     17  F   UNL     1      30.027   6.548  -4.955  1.00  0.00    -0.207 F
ATOM     18  F   UNL     1      28.681  11.071  -5.336  1.00  0.00    -0.207 F
BRANCH  14  19
ATOM     19  C   UNL     1      27.961   8.348  -5.737  1.00  0.00     0.126 C
BRANCH  19  20
ATOM     20  N   UNL     1      28.081   7.916  -7.134  1.00  0.00    -0.291 NA
ATOM     21  C   UNL     1      27.201   6.774  -7.436  1.00  0.00     0.113 C
ATOM     22  C   UNL     1      27.948   8.987  -8.164  1.00  0.00     0.083 C
ATOM     23  C   UNL     1      27.419   6.254  -8.868  1.00  0.00     0.175 C
ATOM     24  C   UNL     1      28.257   8.341  -9.538  1.00  0.00     0.179 C
ATOM     25  O   UNL     1      27.314   7.301  -9.844  1.00  0.00    -0.378 OA
BRANCH  22  26
ATOM     26  C   UNL     1      26.573   9.705  -8.157  1.00  0.00     0.021 C
ATOM     27  G   UNL     1      26.549  11.134  -8.721  1.00  0.00     0.000 C
ENDBRANCH  22  26
ENDBRANCH  19  20
ENDBRANCH  14  19
ENDBRANCH   8  11
BRANCH   1  28
ATOM     28  C   UNL     1      32.253  14.542  -4.486  1.00  0.00     0.040 A
ATOM     29  C   UNL     1      31.689  15.666  -3.918  1.00  0.00     0.119 A
ATOM     30  C   UNL     1      31.884  14.623  -5.843  1.00  0.00     0.145 A
ATOM     31  N   UNL     1      31.055  16.339  -4.922  1.00  0.00    -0.269 N
ATOM     32  N   UNL     1      31.157  15.711  -6.115  1.00  0.00    -0.181 NA
BRANCH  31  33
ATOM     33  C   UNL     1      30.428  17.652  -4.863  1.00  0.00     0.113 C
ATOM     34  C   UNL     1      29.315  17.826  -5.909  1.00  0.00     0.043 C
ATOM     35  C   UNL     1      31.411  18.855  -4.859  1.00  0.00     0.028 C
ATOM     36  C   UNL     1      28.612  19.167  -5.727  1.00  0.00     0.083 C
ATOM     37  C   UNL     1      30.556  20.119  -4.645  1.00  0.00     0.086 C
ATOM     38  N   UNL     1      29.564  20.278  -5.709  1.00  0.00    -0.316 NA
ATOM     39  H   UNL     1      29.056  21.152  -5.569  1.00  0.00     0.122 HD
BRANCH  35  40
ATOM     40  C   UNL     1      32.322  18.926  -6.117  1.00  0.00     0.007 C
BRANCH  40  41
ATOM     41  C   UNL     1      33.738  18.376  -5.896  1.00  0.00     0.002 C
ATOM     42  G   UNL     1      34.242  17.472  -7.033  1.00  0.00     0.000 C
ENDBRANCH  40  41
ENDBRANCH  35  40
ENDBRANCH  31  33
ENDBRANCH   1  28
TORSDOF 0
ENDMDL
MODEL 9
REMARK VINA RESULT:     -10.7      3.827      8.456
REMARK SMILES Fc1cc2cc(F)c1CN1CCOC[C@H]1CCC[C@H]1CNCC[C@H]1n1cc(cn1)-c1cnc3cccc-2c3n1
REMARK SMILES IDX 30 1 31 2 32 3 33 4 34 5 35 6 36 7 37 8 38 9 39 10 4 11 2 12
REMARK SMILES IDX 3 13 8 14 6 15 5 16 1 17 7 18 9 19 10 20 11 21 15 22 12 23
REMARK SMILES IDX 14 24 13 25 16 26 27 28 26 29 28 30 25 31 29 32 24 33 23 34
REMARK SMILES IDX 19 35 22 36 20 37 21 38 18 40 17 41
REMARK H PARENT 21 39
REMARK Flexibility Score:   65.900
ROOT
ATOM      1  C   UNL     1      30.995  10.059  -4.013  1.00  0.00     0.092 A
ATOM      2  C   UNL     1      31.539   8.893  -3.509  1.00  0.00     0.140 A
ATOM      3  N   UNL     1      32.719   8.870  -2.842  1.00  0.00    -0.252 NA
ATOM      4  C   UNL     1      33.345  10.053  -2.678  1.00  0.00     0.089 A
ATOM      5  C   UNL     1      34.558  10.085  -2.006  1.00  0.00     0.030 A
ATOM      6  C   UNL     1      35.243  11.280  -1.798  1.00  0.00     0.003 A
ATOM      7  C   UNL     1      34.698  12.473  -2.261  1.00  0.00     0.011 A
ATOM      8  C   UNL     1      33.470  12.480  -2.945  1.00  0.00     0.010 A
ATOM      9  C   UNL     1      32.793  11.263  -3.171  1.00  0.00     0.097 A
ATOM     10  N   UNL     1      31.619  11.244  -3.842  1.00  0.00    -0.244 NA
ENDROOT
BRANCH   8  11
ATOM     11  C   UNL     1      32.874  13.762  -3.377  1.00  0.00    -0.010 A
ATOM     12  C   UNL     1      32.078  15.241  -5.139  1.00  0.00     0.131 A
ATOM     13  C   UNL     1      32.777  14.104  -4.736  1.00  0.00     0.048 A
ATOM     14  C   UNL     1      31.468  16.084  -4.214  1.00  0.00     0.038 A
ATOM     15  C   UNL     1      31.623  15.781  -2.861  1.00  0.00     0.131 A
ATOM     16  C   UNL     1      32.309  14.642  -2.441  1.00  0.00     0.048 A
ATOM     17  F   UNL     1      31.972  15.495  -6.451  1.00  0.00    -0.207 F
ATOM     18  F   UNL     1      31.086  16.580  -1.928  1.00  0.00    -0.207 F
BRANCH  14  19
ATOM     19  C   UNL     1      30.622  17.247  -4.654  1.00  0.00     0.126 C
BRANCH  19  20
ATOM     20  N   UNL     1      31.354  18.518  -4.619  1.00  0.00    -0.291 NA
ATOM     21  C   UNL     1      32.520  18.508  -5.520  1.00  0.00     0.113 C
ATOM     22  C   UNL     1      30.536  19.750  -4.808  1.00  0.00     0.083 C
ATOM     23  C   UNL     1      33.346  19.799  -5.389  1.00  0.00     0.175 C
ATOM     24  C   UNL     1      31.474  20.962  -4.585  1.00  0.00     0.179 C
ATOM     25  O   UNL     1      32.540  20.975  -5.548  1.00  0.00    -0.378 OA
BRANCH  22  26
ATOM     26  C   UNL     1      29.810  19.824  -6.178  1.00  0.00     0.021 C
ATOM     27  G   UNL     1      29.189  21.181  -6.545  1.00  0.00     0.000 C
ENDBRANCH  22  26
ENDBRANCH  19  20
ENDBRANCH  14  19
ENDBRANCH   8  11
BRANCH   1  28
ATOM     28  C   UNL     1      29.766  10.091  -4.771  1.00  0.00     0.040 A
ATOM     29  C   UNL     1      28.982  11.217  -4.920  1.00  0.00     0.119 A
ATOM     30  C   UNL     1      29.088   9.103  -5.512  1.00  0.00     0.145 A
ATOM     31  N   UNL     1      27.933  10.864  -5.720  1.00  0.00    -0.269 N
ATOM     32  N   UNL     1      27.976   9.565  -6.090  1.00  0.00    -0.181 NA
BRANCH  31  33
ATOM     33  C   UNL     1      26.906  11.730  -6.283  1.00  0.00     0.113 C
ATOM     34  C   UNL     1      26.809  11.617  -7.813  1.00  0.00     0.043 C
ATOM     35  C   UNL     1      26.959  13.210  -5.815  1.00  0.00     0.028 C
ATOM     36  C   UNL     1      25.643  12.448  -8.339  1.00  0.00     0.083 C
ATOM     37  C   UNL     1      25.715  13.901  -6.406  1.00  0.00     0.086 C
ATOM     38  N   UNL     1      25.711  13.831  -7.868  1.00  0.00    -0.316 NA
ATOM     39  H   UNL     1      24.906  14.347  -8.228  1.00  0.00     0.122 HD
BRANCH  35  40
ATOM     40  C   UNL     1      28.293  13.931  -6.159  1.00  0.00     0.007 C
BRANCH  40  41
ATOM     41  C   UNL     1      28.190  15.462  -6.181  1.00  0.00     0.002 C
ATOM     42  G   UNL     1      28.564  16.095  -7.530  1.00  0.00     0.000 C
ENDBRANCH  40  41
ENDBRANCH  35  40
ENDBRANCH  31  33
ENDBRANCH   1  28
TORSDOF 0
ENDMDL
