MODEL 1
REMARK VINA RESULT:      -8.0      0.000      0.000
REMARK SMILES C1=C2\CCC[C@@H]3CCCN3CCOc3ccc(cc3COC2)Nc2nccc(n2)-c2ccc(s2)COC/1
REMARK SMILES IDX 14 1 15 2 16 3 17 4 18 5 19 6 20 7 21 8 22 9 2 10 1 11 3 13
REMARK SMILES IDX 4 14 5 15 13 17 12 18 11 19 10 20 9 21 6 22 8 23 7 24 23 26
REMARK SMILES IDX 24 28 25 29 29 30 26 31 28 32 27 33 30 34 31 35 34 36 32 37
REMARK SMILES IDX 33 38 35 39 36 40 37 41
REMARK H PARENT 23 27
REMARK Flexibility Score:   91.800
ROOT
ATOM      1  C   UNL     1      31.426  15.777  -4.659  1.00  0.00     0.125 A
ATOM      2  C   UNL     1      32.529  16.143  -3.889  1.00  0.00     0.049 A
ATOM      3  C   UNL     1      33.380  15.160  -3.376  1.00  0.00     0.030 A
ATOM      4  C   UNL     1      33.159  13.800  -3.637  1.00  0.00     0.042 A
ATOM      5  C   UNL     1      32.070  13.465  -4.453  1.00  0.00     0.036 A
ATOM      6  C   UNL     1      31.186  14.434  -4.965  1.00  0.00     0.022 A
ENDROOT
BRANCH   6   7
ATOM      7  C   UNL     1      30.030  13.999  -5.835  1.00  0.00     0.200 C
BRANCH   7   8
ATOM      8  O   UNL     1      29.012  13.261  -5.147  1.00  0.00    -0.372 OA
BRANCH   8   9
ATOM      9  C   UNL     1      28.110  14.083  -4.411  1.00  0.00     0.191 C
BRANCH   9  10
ATOM     10  C   UNL     1      27.012  14.575  -5.328  1.00  0.00    -0.046 C
ATOM     11  C   UNL     1      26.253  13.673  -5.989  1.00  0.00     0.003 C
ATOM     12  G   UNL     1      25.135  13.898  -6.965  1.00  0.00     0.000 C
BRANCH  10  13
ATOM     13  C   UNL     1      26.862  16.077  -5.460  1.00  0.00     0.033 C
BRANCH  13  14
ATOM     14  C   UNL     1      27.509  16.640  -6.740  1.00  0.00     0.006 C
BRANCH  14  15
ATOM     15  C   UNL     1      26.545  17.468  -7.609  1.00  0.00     0.019 C
ATOM     16  G   UNL     1      26.258  18.866  -7.039  1.00  0.00     0.000 C
ENDBRANCH  14  15
ENDBRANCH  13  14
ENDBRANCH  10  13
ENDBRANCH   9  10
ENDBRANCH   8   9
ENDBRANCH   7   8
ENDBRANCH   6   7
BRANCH   1  17
ATOM     17  O   UNL     1      30.615  16.764  -5.152  1.00  0.00    -0.492 OA
BRANCH  17  18
ATOM     18  C   UNL     1      31.199  17.374  -6.321  1.00  0.00     0.245 C
BRANCH  18  19
ATOM     19  C   UNL     1      30.994  18.897  -6.216  1.00  0.00     0.126 C
BRANCH  19  20
ATOM     20  N   UNL     1      32.153  19.776  -6.403  1.00  0.00    -0.297 NA
ATOM     21  C   UNL     1      33.367  19.083  -6.822  1.00  0.00     0.085 C
ATOM     22  C   UNL     1      32.543  20.612  -5.260  1.00  0.00     0.056 C
ATOM     23  C   UNL     1      34.451  20.144  -6.679  1.00  0.00     0.017 C
ATOM     24  C   UNL     1      33.851  21.218  -5.776  1.00  0.00     0.020 C
ATOM     25  G   UNL     1      31.502  21.674  -4.873  1.00  0.00     0.000 C
ENDBRANCH  19  20
ENDBRANCH  18  19
ENDBRANCH  17  18
ENDBRANCH   1  17
BRANCH   4  26
ATOM     26  N   UNL     1      33.973  12.845  -3.014  1.00  0.00    -0.324 N
ATOM     27  H   UNL     1      34.807  13.166  -2.546  1.00  0.00     0.170 HD
BRANCH  26  28
ATOM     28  C   UNL     1      33.819  11.472  -2.830  1.00  0.00     0.227 A
ATOM     29  N   UNL     1      34.682  10.881  -1.989  1.00  0.00    -0.221 NA
ATOM     30  N   UNL     1      32.821  10.812  -3.422  1.00  0.00    -0.212 NA
ATOM     31  C   UNL     1      34.499   9.567  -1.742  1.00  0.00     0.117 A
ATOM     32  C   UNL     1      32.660   9.506  -3.140  1.00  0.00     0.086 A
ATOM     33  C   UNL     1      33.486   8.819  -2.288  1.00  0.00     0.050 A
BRANCH  32  34
ATOM     34  C   UNL     1      31.513   8.917  -3.823  1.00  0.00     0.053 A
ATOM     35  C   UNL     1      31.216   7.577  -3.981  1.00  0.00     0.022 A
ATOM     36  S   UNL     1      30.402   9.904  -4.674  1.00  0.00    -0.136 S
ATOM     37  C   UNL     1      30.131   7.364  -4.875  1.00  0.00     0.018 A
ATOM     38  C   UNL     1      29.659   8.546  -5.411  1.00  0.00     0.031 A
BRANCH  38  39
ATOM     39  C   UNL     1      28.666   8.728  -6.517  1.00  0.00     0.207 C
BRANCH  39  40
ATOM     40  O   UNL     1      29.036   7.886  -7.615  1.00  0.00    -0.372 OA
BRANCH  40  41
ATOM     41  C   UNL     1      28.097   6.855  -7.930  1.00  0.00     0.188 C
ATOM     42  G   UNL     1      28.729   5.498  -7.832  1.00  0.00     0.000 C
ENDBRANCH  40  41
ENDBRANCH  39  40
ENDBRANCH  38  39
ENDBRANCH  32  34
ENDBRANCH  26  28
ENDBRANCH   4  26
TORSDOF 0
ENDMDL
MODEL 2
REMARK VINA RESULT:      -7.4      2.567      7.131
REMARK SMILES C1=C2\CCC[C@@H]3CCCN3CCOc3ccc(cc3COC2)Nc2nccc(n2)-c2ccc(s2)COC/1
REMARK SMILES IDX 14 1 15 2 16 3 17 4 18 5 19 6 20 7 21 8 22 9 2 10 1 11 3 13
REMARK SMILES IDX 4 14 5 15 13 17 12 18 11 19 10 20 9 21 6 22 8 23 7 24 23 26
REMARK SMILES IDX 24 28 25 29 29 30 26 31 28 32 27 33 30 34 31 35 34 36 32 37
REMARK SMILES IDX 33 38 35 39 36 40 37 41
REMARK H PARENT 23 27
REMARK Flexibility Score:   91.800
ROOT
ATOM      1  C   UNL     1      31.913  14.683  -3.867  1.00  0.00     0.125 A
ATOM      2  C   UNL     1      30.980  14.235  -2.933  1.00  0.00     0.049 A
ATOM      3  C   UNL     1      29.622  14.204  -3.263  1.00  0.00     0.030 A
ATOM      4  C   UNL     1      29.172  14.599  -4.531  1.00  0.00     0.042 A
ATOM      5  C   UNL     1      30.138  15.000  -5.465  1.00  0.00     0.036 A
ATOM      6  C   UNL     1      31.509  15.059  -5.153  1.00  0.00     0.022 A
ENDROOT
BRANCH   6   7
ATOM      7  C   UNL     1      32.493  15.505  -6.209  1.00  0.00     0.200 C
BRANCH   7   8
ATOM      8  O   UNL     1      32.161  16.745  -6.846  1.00  0.00    -0.372 OA
BRANCH   8   9
ATOM      9  C   UNL     1      33.293  17.562  -7.132  1.00  0.00     0.191 C
BRANCH   9  10
ATOM     10  C   UNL     1      33.205  18.843  -6.332  1.00  0.00    -0.046 C
ATOM     11  C   UNL     1      34.015  19.875  -6.652  1.00  0.00     0.003 C
ATOM     12  G   UNL     1      34.143  21.225  -6.008  1.00  0.00     0.000 C
BRANCH  10  13
ATOM     13  C   UNL     1      32.210  18.861  -5.189  1.00  0.00     0.033 C
BRANCH  13  14
ATOM     14  C   UNL     1      30.944  19.681  -5.502  1.00  0.00     0.006 C
BRANCH  14  15
ATOM     15  C   UNL     1      29.635  18.973  -5.114  1.00  0.00     0.019 C
ATOM     16  G   UNL     1      28.932  18.293  -6.300  1.00  0.00     0.000 C
ENDBRANCH  14  15
ENDBRANCH  13  14
ENDBRANCH  10  13
ENDBRANCH   9  10
ENDBRANCH   8   9
ENDBRANCH   7   8
ENDBRANCH   6   7
BRANCH   1  17
ATOM     17  O   UNL     1      33.236  14.695  -3.518  1.00  0.00    -0.492 OA
BRANCH  17  18
ATOM     18  C   UNL     1      33.580  13.518  -2.759  1.00  0.00     0.245 C
BRANCH  18  19
ATOM     19  C   UNL     1      33.360  12.289  -3.661  1.00  0.00     0.126 C
BRANCH  19  20
ATOM     20  N   UNL     1      32.914  11.036  -3.044  1.00  0.00    -0.297 NA
ATOM     21  C   UNL     1      34.001  10.176  -2.584  1.00  0.00     0.085 C
ATOM     22  C   UNL     1      32.036  10.175  -3.848  1.00  0.00     0.056 C
ATOM     23  C   UNL     1      33.302   8.865  -2.251  1.00  0.00     0.017 C
ATOM     24  C   UNL     1      31.952   8.933  -2.957  1.00  0.00     0.020 C
ATOM     25  G   UNL     1      30.661  10.790  -4.151  1.00  0.00     0.000 C
ENDBRANCH  19  20
ENDBRANCH  18  19
ENDBRANCH  17  18
ENDBRANCH   1  17
BRANCH   4  26
ATOM     26  N   UNL     1      27.795  14.655  -4.780  1.00  0.00    -0.324 N
ATOM     27  H   UNL     1      27.228  15.231  -4.175  1.00  0.00     0.170 HD
BRANCH  26  28
ATOM     28  C   UNL     1      27.011  14.110  -5.795  1.00  0.00     0.227 A
ATOM     29  N   UNL     1      26.039  14.893  -6.287  1.00  0.00    -0.221 NA
ATOM     30  N   UNL     1      27.273  12.893  -6.279  1.00  0.00    -0.212 NA
ATOM     31  C   UNL     1      25.322  14.408  -7.322  1.00  0.00     0.117 A
ATOM     32  C   UNL     1      26.547  12.449  -7.321  1.00  0.00     0.086 A
ATOM     33  C   UNL     1      25.539  13.180  -7.895  1.00  0.00     0.050 A
BRANCH  32  34
ATOM     34  C   UNL     1      26.959  11.124  -7.774  1.00  0.00     0.053 A
ATOM     35  C   UNL     1      26.838  10.585  -9.040  1.00  0.00     0.022 A
ATOM     36  S   UNL     1      27.564   9.971  -6.662  1.00  0.00    -0.136 S
ATOM     37  C   UNL     1      27.157   9.199  -9.072  1.00  0.00     0.018 A
ATOM     38  C   UNL     1      27.468   8.708  -7.819  1.00  0.00     0.031 A
BRANCH  38  39
ATOM     39  C   UNL     1      27.672   7.283  -7.409  1.00  0.00     0.207 C
BRANCH  39  40
ATOM     40  O   UNL     1      27.536   7.186  -5.986  1.00  0.00    -0.372 OA
BRANCH  40  41
ATOM     41  C   UNL     1      28.369   6.206  -5.363  1.00  0.00     0.188 C
ATOM     42  G   UNL     1      29.783   6.695  -5.241  1.00  0.00     0.000 C
ENDBRANCH  40  41
ENDBRANCH  39  40
ENDBRANCH  38  39
ENDBRANCH  32  34
ENDBRANCH  26  28
ENDBRANCH   4  26
TORSDOF 0
ENDMDL
MODEL 3
REMARK VINA RESULT:      -7.4      1.768      2.535
REMARK SMILES C1=C2\CCC[C@@H]3CCCN3CCOc3ccc(cc3COC2)Nc2nccc(n2)-c2ccc(s2)COC/1
REMARK SMILES IDX 14 1 15 2 16 3 17 4 18 5 19 6 20 7 21 8 22 9 2 10 1 11 3 13
REMARK SMILES IDX 4 14 5 15 13 17 12 18 11 19 10 20 9 21 6 22 8 23 7 24 23 26
REMARK SMILES IDX 24 28 25 29 29 30 26 31 28 32 27 33 30 34 31 35 34 36 32 37
REMARK SMILES IDX 33 38 35 39 36 40 37 41
REMARK H PARENT 23 27
REMARK Flexibility Score:   91.800
ROOT
ATOM      1  C   UNL     1      32.620  15.896  -4.196  1.00  0.00     0.125 A
ATOM      2  C   UNL     1      33.594  15.590  -3.246  1.00  0.00     0.049 A
ATOM      3  C   UNL     1      33.886  14.256  -2.949  1.00  0.00     0.030 A
ATOM      4  C   UNL     1      33.229  13.205  -3.605  1.00  0.00     0.042 A
ATOM      5  C   UNL     1      32.289  13.542  -4.589  1.00  0.00     0.036 A
ATOM      6  C   UNL     1      31.963  14.877  -4.893  1.00  0.00     0.022 A
ENDROOT
BRANCH   6   7
ATOM      7  C   UNL     1      30.935  15.165  -5.963  1.00  0.00     0.200 C
BRANCH   7   8
ATOM      8  O   UNL     1      29.598  14.775  -5.625  1.00  0.00    -0.372 OA
BRANCH   8   9
ATOM      9  C   UNL     1      28.629  15.791  -5.865  1.00  0.00     0.191 C
BRANCH   9  10
ATOM     10  C   UNL     1      27.259  15.162  -5.988  1.00  0.00    -0.046 C
ATOM     11  C   UNL     1      26.526  14.958  -4.871  1.00  0.00     0.003 C
ATOM     12  G   UNL     1      25.169  14.335  -4.720  1.00  0.00     0.000 C
BRANCH  10  13
ATOM     13  C   UNL     1      26.813  14.774  -7.384  1.00  0.00     0.033 C
BRANCH  13  14
ATOM     14  C   UNL     1      27.160  13.318  -7.747  1.00  0.00     0.006 C
BRANCH  14  15
ATOM     15  C   UNL     1      26.110  12.636  -8.642  1.00  0.00     0.019 C
ATOM     16  G   UNL     1      26.578  12.439 -10.092  1.00  0.00     0.000 C
ENDBRANCH  14  15
ENDBRANCH  13  14
ENDBRANCH  10  13
ENDBRANCH   9  10
ENDBRANCH   8   9
ENDBRANCH   7   8
ENDBRANCH   6   7
BRANCH   1  17
ATOM     17  O   UNL     1      32.362  17.212  -4.469  1.00  0.00    -0.492 OA
BRANCH  17  18
ATOM     18  C   UNL     1      33.127  17.662  -5.605  1.00  0.00     0.245 C
BRANCH  18  19
ATOM     19  C   UNL     1      32.279  18.693  -6.374  1.00  0.00     0.126 C
BRANCH  19  20
ATOM     20  N   UNL     1      32.790  20.060  -6.513  1.00  0.00    -0.297 NA
ATOM     21  C   UNL     1      34.242  20.168  -6.414  1.00  0.00     0.085 C
ATOM     22  C   UNL     1      32.249  21.068  -5.590  1.00  0.00     0.056 C
ATOM     23  C   UNL     1      34.483  21.668  -6.314  1.00  0.00     0.017 C
ATOM     24  C   UNL     1      33.136  22.271  -5.922  1.00  0.00     0.020 C
ATOM     25  G   UNL     1      30.752  21.355  -5.782  1.00  0.00     0.000 C
ENDBRANCH  19  20
ENDBRANCH  18  19
ENDBRANCH  17  18
ENDBRANCH   1  17
BRANCH   4  26
ATOM     26  N   UNL     1      33.475  11.887  -3.199  1.00  0.00    -0.324 N
ATOM     27  H   UNL     1      34.286  11.712  -2.625  1.00  0.00     0.170 HD
BRANCH  26  28
ATOM     28  C   UNL     1      32.746  10.711  -3.370  1.00  0.00     0.227 A
ATOM     29  N   UNL     1      33.182   9.635  -2.698  1.00  0.00    -0.221 NA
ATOM     30  N   UNL     1      31.642  10.697  -4.119  1.00  0.00    -0.212 NA
ATOM     31  C   UNL     1      32.443   8.509  -2.792  1.00  0.00     0.117 A
ATOM     32  C   UNL     1      30.923   9.561  -4.178  1.00  0.00     0.086 A
ATOM     33  C   UNL     1      31.284   8.413  -3.520  1.00  0.00     0.050 A
BRANCH  32  34
ATOM     34  C   UNL     1      29.723   9.692  -4.998  1.00  0.00     0.053 A
ATOM     35  C   UNL     1      28.733  10.652  -4.907  1.00  0.00     0.022 A
ATOM     36  S   UNL     1      29.328   8.501  -6.163  1.00  0.00    -0.136 S
ATOM     37  C   UNL     1      27.612  10.354  -5.730  1.00  0.00     0.018 A
ATOM     38  C   UNL     1      27.757   9.151  -6.392  1.00  0.00     0.031 A
BRANCH  38  39
ATOM     39  C   UNL     1      26.734   8.406  -7.192  1.00  0.00     0.207 C
BRANCH  39  40
ATOM     40  O   UNL     1      26.378   7.210  -6.490  1.00  0.00    -0.372 OA
BRANCH  40  41
ATOM     41  C   UNL     1      25.147   7.276  -5.766  1.00  0.00     0.188 C
ATOM     42  G   UNL     1      25.342   6.896  -4.327  1.00  0.00     0.000 C
ENDBRANCH  40  41
ENDBRANCH  39  40
ENDBRANCH  38  39
ENDBRANCH  32  34
ENDBRANCH  26  28
ENDBRANCH   4  26
TORSDOF 0
ENDMDL
MODEL 4
REMARK VINA RESULT:      -7.3      1.372      2.127
REMARK SMILES C1=C2\CCC[C@@H]3CCCN3CCOc3ccc(cc3COC2)Nc2nccc(n2)-c2ccc(s2)COC/1
REMARK SMILES IDX 14 1 15 2 16 3 17 4 18 5 19 6 20 7 21 8 22 9 2 10 1 11 3 13
REMARK SMILES IDX 4 14 5 15 13 17 12 18 11 19 10 20 9 21 6 22 8 23 7 24 23 26
REMARK SMILES IDX 24 28 25 29 29 30 26 31 28 32 27 33 30 34 31 35 34 36 32 37
REMARK SMILES IDX 33 38 35 39 36 40 37 41
REMARK H PARENT 23 27
REMARK Flexibility Score:   91.800
ROOT
ATOM      1  C   UNL     1      31.284  15.576  -4.178  1.00  0.00     0.125 A
ATOM      2  C   UNL     1      32.524  15.650  -3.545  1.00  0.00     0.049 A
ATOM      3  C   UNL     1      33.311  14.502  -3.414  1.00  0.00     0.030 A
ATOM      4  C   UNL     1      32.887  13.268  -3.927  1.00  0.00     0.042 A
ATOM      5  C   UNL     1      31.658  13.234  -4.600  1.00  0.00     0.036 A
ATOM      6  C   UNL     1      30.837  14.370  -4.728  1.00  0.00     0.022 A
ENDROOT
BRANCH   6   7
ATOM      7  C   UNL     1      29.522  14.257  -5.463  1.00  0.00     0.200 C
BRANCH   7   8
ATOM      8  O   UNL     1      28.362  14.404  -4.635  1.00  0.00    -0.372 OA
BRANCH   8   9
ATOM      9  C   UNL     1      27.142  14.086  -5.297  1.00  0.00     0.191 C
BRANCH   9  10
ATOM     10  C   UNL     1      26.709  15.259  -6.149  1.00  0.00    -0.046 C
ATOM     11  C   UNL     1      26.943  16.514  -5.707  1.00  0.00     0.003 C
ATOM     12  G   UNL     1      26.594  17.830  -6.339  1.00  0.00     0.000 C
BRANCH  10  13
ATOM     13  C   UNL     1      26.007  14.929  -7.450  1.00  0.00     0.033 C
BRANCH  13  14
ATOM     14  C   UNL     1      26.981  14.591  -8.595  1.00  0.00     0.006 C
BRANCH  14  15
ATOM     15  C   UNL     1      27.828  15.789  -9.061  1.00  0.00     0.019 C
ATOM     16  G   UNL     1      27.734  16.052 -10.572  1.00  0.00     0.000 C
ENDBRANCH  14  15
ENDBRANCH  13  14
ENDBRANCH  10  13
ENDBRANCH   9  10
ENDBRANCH   8   9
ENDBRANCH   7   8
ENDBRANCH   6   7
BRANCH   1  17
ATOM     17  O   UNL     1      30.540  16.718  -4.297  1.00  0.00    -0.492 OA
BRANCH  17  18
ATOM     18  C   UNL     1      31.323  17.881  -3.961  1.00  0.00     0.245 C
BRANCH  18  19
ATOM     19  C   UNL     1      31.375  18.796  -5.199  1.00  0.00     0.126 C
BRANCH  19  20
ATOM     20  N   UNL     1      32.581  19.595  -5.432  1.00  0.00    -0.297 NA
ATOM     21  C   UNL     1      32.345  21.035  -5.475  1.00  0.00     0.085 C
ATOM     22  C   UNL     1      33.364  19.282  -6.636  1.00  0.00     0.056 C
ATOM     23  C   UNL     1      33.663  21.598  -5.990  1.00  0.00     0.017 C
ATOM     24  C   UNL     1      34.394  20.414  -6.616  1.00  0.00     0.020 C
ATOM     25  G   UNL     1      34.005  17.885  -6.622  1.00  0.00     0.000 C
ENDBRANCH  19  20
ENDBRANCH  18  19
ENDBRANCH  17  18
ENDBRANCH   1  17
BRANCH   4  26
ATOM     26  N   UNL     1      33.657  12.124  -3.677  1.00  0.00    -0.324 N
ATOM     27  H   UNL     1      34.660  12.205  -3.747  1.00  0.00     0.170 HD
BRANCH  26  28
ATOM     28  C   UNL     1      33.308  10.844  -3.253  1.00  0.00     0.227 A
ATOM     29  N   UNL     1      33.925  10.390  -2.152  1.00  0.00    -0.221 NA
ATOM     30  N   UNL     1      32.361  10.150  -3.889  1.00  0.00    -0.212 NA
ATOM     31  C   UNL     1      33.541   9.183  -1.684  1.00  0.00     0.117 A
ATOM     32  C   UNL     1      31.995   8.957  -3.386  1.00  0.00     0.086 A
ATOM     33  C   UNL     1      32.562   8.414  -2.261  1.00  0.00     0.050 A
BRANCH  32  34
ATOM     34  C   UNL     1      30.928   8.322  -4.153  1.00  0.00     0.053 A
ATOM     35  C   UNL     1      30.677   6.972  -4.302  1.00  0.00     0.022 A
ATOM     36  S   UNL     1      29.876   9.261  -5.126  1.00  0.00    -0.136 S
ATOM     37  C   UNL     1      29.682   6.710  -5.283  1.00  0.00     0.018 A
ATOM     38  C   UNL     1      29.233   7.866  -5.891  1.00  0.00     0.031 A
BRANCH  38  39
ATOM     39  C   UNL     1      28.341   7.997  -7.086  1.00  0.00     0.207 C
BRANCH  39  40
ATOM     40  O   UNL     1      27.945   9.367  -7.220  1.00  0.00    -0.372 OA
BRANCH  40  41
ATOM     41  C   UNL     1      26.910   9.606  -8.177  1.00  0.00     0.188 C
ATOM     42  G   UNL     1      26.551  11.062  -8.234  1.00  0.00     0.000 C
ENDBRANCH  40  41
ENDBRANCH  39  40
ENDBRANCH  38  39
ENDBRANCH  32  34
ENDBRANCH  26  28
ENDBRANCH   4  26
TORSDOF 0
ENDMDL
MODEL 5
REMARK VINA RESULT:      -7.3      2.471      8.523
REMARK SMILES C1=C2\CCC[C@@H]3CCCN3CCOc3ccc(cc3COC2)Nc2nccc(n2)-c2ccc(s2)COC/1
REMARK SMILES IDX 14 1 15 2 16 3 17 4 18 5 19 6 20 7 21 8 22 9 2 10 1 11 3 13
REMARK SMILES IDX 4 14 5 15 13 17 12 18 11 19 10 20 9 21 6 22 8 23 7 24 23 26
REMARK SMILES IDX 24 28 25 29 29 30 26 31 28 32 27 33 30 34 31 35 34 36 32 37
REMARK SMILES IDX 33 38 35 39 36 40 37 41
REMARK H PARENT 23 27
REMARK Flexibility Score:   91.800
ROOT
ATOM      1  C   UNL     1      29.378   8.983  -5.812  1.00  0.00     0.125 A
ATOM      2  C   UNL     1      30.035   7.776  -5.572  1.00  0.00     0.049 A
ATOM      3  C   UNL     1      30.876   7.648  -4.462  1.00  0.00     0.030 A
ATOM      4  C   UNL     1      31.060   8.708  -3.563  1.00  0.00     0.042 A
ATOM      5  C   UNL     1      30.349   9.892  -3.803  1.00  0.00     0.036 A
ATOM      6  C   UNL     1      29.513  10.055  -4.924  1.00  0.00     0.022 A
ENDROOT
BRANCH   6   7
ATOM      7  C   UNL     1      28.782  11.362  -5.122  1.00  0.00     0.200 C
BRANCH   7   8
ATOM      8  O   UNL     1      29.613  12.527  -5.049  1.00  0.00    -0.372 OA
BRANCH   8   9
ATOM      9  C   UNL     1      29.275  13.404  -3.978  1.00  0.00     0.191 C
BRANCH   9  10
ATOM     10  C   UNL     1      28.470  14.568  -4.515  1.00  0.00    -0.046 C
ATOM     11  C   UNL     1      27.176  14.374  -4.852  1.00  0.00     0.003 C
ATOM     12  G   UNL     1      26.183  15.342  -5.424  1.00  0.00     0.000 C
BRANCH  10  13
ATOM     13  C   UNL     1      29.202  15.886  -4.662  1.00  0.00     0.033 C
BRANCH  13  14
ATOM     14  C   UNL     1      29.529  16.237  -6.127  1.00  0.00     0.006 C
BRANCH  14  15
ATOM     15  C   UNL     1      29.308  17.720  -6.473  1.00  0.00     0.019 C
ATOM     16  G   UNL     1      28.335  18.432  -5.520  1.00  0.00     0.000 C
ENDBRANCH  14  15
ENDBRANCH  13  14
ENDBRANCH  10  13
ENDBRANCH   9  10
ENDBRANCH   8   9
ENDBRANCH   7   8
ENDBRANCH   6   7
BRANCH   1  17
ATOM     17  O   UNL     1      28.557   9.075  -6.903  1.00  0.00    -0.492 OA
BRANCH  17  18
ATOM     18  C   UNL     1      28.886   8.070  -7.883  1.00  0.00     0.245 C
BRANCH  18  19
ATOM     19  C   UNL     1      27.573   7.581  -8.524  1.00  0.00     0.126 C
BRANCH  19  20
ATOM     20  N   UNL     1      26.584   6.912  -7.675  1.00  0.00    -0.297 NA
ATOM     21  C   UNL     1      27.125   5.818  -6.874  1.00  0.00     0.085 C
ATOM     22  C   UNL     1      25.394   6.367  -8.344  1.00  0.00     0.056 C
ATOM     23  C   UNL     1      25.884   5.136  -6.315  1.00  0.00     0.017 C
ATOM     24  C   UNL     1      24.728   5.616  -7.188  1.00  0.00     0.020 C
ATOM     25  G   UNL     1      24.483   7.433  -8.972  1.00  0.00     0.000 C
ENDBRANCH  19  20
ENDBRANCH  18  19
ENDBRANCH  17  18
ENDBRANCH   1  17
BRANCH   4  26
ATOM     26  N   UNL     1      31.994   8.571  -2.528  1.00  0.00    -0.324 N
ATOM     27  H   UNL     1      31.936   7.749  -1.945  1.00  0.00     0.170 HD
BRANCH  26  28
ATOM     28  C   UNL     1      33.097   9.340  -2.164  1.00  0.00     0.227 A
ATOM     29  N   UNL     1      34.071   8.709  -1.491  1.00  0.00    -0.221 NA
ATOM     30  N   UNL     1      33.185  10.621  -2.530  1.00  0.00    -0.212 NA
ATOM     31  C   UNL     1      35.179   9.421  -1.199  1.00  0.00     0.117 A
ATOM     32  C   UNL     1      34.311  11.296  -2.234  1.00  0.00     0.086 A
ATOM     33  C   UNL     1      35.363  10.733  -1.557  1.00  0.00     0.050 A
BRANCH  32  34
ATOM     34  C   UNL     1      34.292  12.670  -2.722  1.00  0.00     0.053 A
ATOM     35  C   UNL     1      35.224  13.665  -2.494  1.00  0.00     0.022 A
ATOM     36  S   UNL     1      32.942  13.270  -3.589  1.00  0.00    -0.136 S
ATOM     37  C   UNL     1      34.782  14.937  -2.953  1.00  0.00     0.018 A
ATOM     38  C   UNL     1      33.506  14.886  -3.478  1.00  0.00     0.031 A
BRANCH  38  39
ATOM     39  C   UNL     1      32.628  16.029  -3.886  1.00  0.00     0.207 C
BRANCH  39  40
ATOM     40  O   UNL     1      32.861  16.320  -5.269  1.00  0.00    -0.372 OA
BRANCH  40  41
ATOM     41  C   UNL     1      33.077  17.701  -5.568  1.00  0.00     0.188 C
ATOM     42  G   UNL     1      34.115  17.868  -6.640  1.00  0.00     0.000 C
ENDBRANCH  40  41
ENDBRANCH  39  40
ENDBRANCH  38  39
ENDBRANCH  32  34
ENDBRANCH  26  28
ENDBRANCH   4  26
TORSDOF 0
ENDMDL
MODEL 6
REMARK VINA RESULT:      -7.2      2.307      8.581
REMARK SMILES C1=C2\CCC[C@@H]3CCCN3CCOc3ccc(cc3COC2)Nc2nccc(n2)-c2ccc(s2)COC/1
REMARK SMILES IDX 14 1 15 2 16 3 17 4 18 5 19 6 20 7 21 8 22 9 2 10 1 11 3 13
REMARK SMILES IDX 4 14 5 15 13 17 12 18 11 19 10 20 9 21 6 22 8 23 7 24 23 26
REMARK SMILES IDX 24 28 25 29 29 30 26 31 28 32 27 33 30 34 31 35 34 36 32 37
REMARK SMILES IDX 33 38 35 39 36 40 37 41
REMARK H PARENT 23 27
REMARK Flexibility Score:   91.800
ROOT
ATOM      1  C   UNL     1      29.700   8.182  -4.985  1.00  0.00     0.125 A
ATOM      2  C   UNL     1      30.647   7.388  -4.341  1.00  0.00     0.049 A
ATOM      3  C   UNL     1      31.709   7.986  -3.654  1.00  0.00     0.030 A
ATOM      4  C   UNL     1      31.834   9.380  -3.581  1.00  0.00     0.042 A
ATOM      5  C   UNL     1      30.841  10.153  -4.198  1.00  0.00     0.036 A
ATOM      6  C   UNL     1      29.773   9.577  -4.912  1.00  0.00     0.022 A
ENDROOT
BRANCH   6   7
ATOM      7  C   UNL     1      28.741  10.474  -5.556  1.00  0.00     0.200 C
BRANCH   7   8
ATOM      8  O   UNL     1      28.355  11.603  -4.763  1.00  0.00    -0.372 OA
BRANCH   8   9
ATOM      9  C   UNL     1      28.789  12.851  -5.296  1.00  0.00     0.191 C
BRANCH   9  10
ATOM     10  C   UNL     1      27.654  13.849  -5.230  1.00  0.00    -0.046 C
ATOM     11  C   UNL     1      26.390  13.423  -5.442  1.00  0.00     0.003 C
ATOM     12  G   UNL     1      25.109  14.205  -5.459  1.00  0.00     0.000 C
BRANCH  10  13
ATOM     13  C   UNL     1      28.035  15.289  -4.951  1.00  0.00     0.033 C
BRANCH  13  14
ATOM     14  C   UNL     1      27.975  16.184  -6.203  1.00  0.00     0.006 C
BRANCH  14  15
ATOM     15  C   UNL     1      27.037  17.395  -6.056  1.00  0.00     0.019 C
ATOM     16  G   UNL     1      27.767  18.746  -6.131  1.00  0.00     0.000 C
ENDBRANCH  14  15
ENDBRANCH  13  14
ENDBRANCH  10  13
ENDBRANCH   9  10
ENDBRANCH   8   9
ENDBRANCH   7   8
ENDBRANCH   6   7
BRANCH   1  17
ATOM     17  O   UNL     1      28.669   7.568  -5.643  1.00  0.00    -0.492 OA
BRANCH  17  18
ATOM     18  C   UNL     1      29.148   6.851  -6.798  1.00  0.00     0.245 C
BRANCH  18  19
ATOM     19  C   UNL     1      27.972   6.687  -7.779  1.00  0.00     0.126 C
BRANCH  19  20
ATOM     20  N   UNL     1      26.612   6.943  -7.296  1.00  0.00    -0.297 NA
ATOM     21  C   UNL     1      25.815   5.738  -7.085  1.00  0.00     0.085 C
ATOM     22  C   UNL     1      25.776   7.840  -8.106  1.00  0.00     0.056 C
ATOM     23  C   UNL     1      24.408   6.275  -6.860  1.00  0.00     0.017 C
ATOM     24  C   UNL     1      24.429   7.705  -7.393  1.00  0.00     0.020 C
ATOM     25  G   UNL     1      26.284   9.289  -8.164  1.00  0.00     0.000 C
ENDBRANCH  19  20
ENDBRANCH  18  19
ENDBRANCH  17  18
ENDBRANCH   1  17
BRANCH   4  26
ATOM     26  N   UNL     1      32.971   9.932  -2.977  1.00  0.00    -0.324 N
ATOM     27  H   UNL     1      33.641   9.302  -2.563  1.00  0.00     0.170 HD
BRANCH  26  28
ATOM     28  C   UNL     1      33.433  11.245  -2.892  1.00  0.00     0.227 A
ATOM     29  N   UNL     1      34.572  11.435  -2.209  1.00  0.00    -0.221 NA
ATOM     30  N   UNL     1      32.792  12.234  -3.518  1.00  0.00    -0.212 NA
ATOM     31  C   UNL     1      35.073  12.688  -2.183  1.00  0.00     0.117 A
ATOM     32  C   UNL     1      33.328  13.468  -3.482  1.00  0.00     0.086 A
ATOM     33  C   UNL     1      34.492  13.758  -2.817  1.00  0.00     0.050 A
BRANCH  32  34
ATOM     34  C   UNL     1      32.549  14.446  -4.234  1.00  0.00     0.053 A
ATOM     35  C   UNL     1      32.187  14.399  -5.567  1.00  0.00     0.022 A
ATOM     36  S   UNL     1      32.080  15.928  -3.515  1.00  0.00    -0.136 S
ATOM     37  C   UNL     1      31.606  15.617  -6.014  1.00  0.00     0.018 A
ATOM     38  C   UNL     1      31.584  16.578  -5.022  1.00  0.00     0.031 A
BRANCH  38  39
ATOM     39  C   UNL     1      31.232  18.028  -5.147  1.00  0.00     0.207 C
BRANCH  39  40
ATOM     40  O   UNL     1      32.387  18.814  -4.831  1.00  0.00    -0.372 OA
BRANCH  40  41
ATOM     41  C   UNL     1      32.840  19.673  -5.879  1.00  0.00     0.188 C
ATOM     42  G   UNL     1      33.833  18.974  -6.762  1.00  0.00     0.000 C
ENDBRANCH  40  41
ENDBRANCH  39  40
ENDBRANCH  38  39
ENDBRANCH  32  34
ENDBRANCH  26  28
ENDBRANCH   4  26
TORSDOF 0
ENDMDL
MODEL 7
REMARK VINA RESULT:      -7.2      3.250      6.489
REMARK SMILES C1=C2\CCC[C@@H]3CCCN3CCOc3ccc(cc3COC2)Nc2nccc(n2)-c2ccc(s2)COC/1
REMARK SMILES IDX 14 1 15 2 16 3 17 4 18 5 19 6 20 7 21 8 22 9 2 10 1 11 3 13
REMARK SMILES IDX 4 14 5 15 13 17 12 18 11 19 10 20 9 21 6 22 8 23 7 24 23 26
REMARK SMILES IDX 24 28 25 29 29 30 26 31 28 32 27 33 30 34 31 35 34 36 32 37
REMARK SMILES IDX 33 38 35 39 36 40 37 41
REMARK H PARENT 23 27
REMARK Flexibility Score:   91.800
ROOT
ATOM      1  C   UNL     1      30.256  15.020  -5.226  1.00  0.00     0.125 A
ATOM      2  C   UNL     1      29.303  14.701  -6.192  1.00  0.00     0.049 A
ATOM      3  C   UNL     1      28.434  13.624  -5.987  1.00  0.00     0.030 A
ATOM      4  C   UNL     1      28.487  12.863  -4.811  1.00  0.00     0.042 A
ATOM      5  C   UNL     1      29.423  13.237  -3.838  1.00  0.00     0.036 A
ATOM      6  C   UNL     1      30.322  14.303  -4.027  1.00  0.00     0.022 A
ENDROOT
BRANCH   6   7
ATOM      7  C   UNL     1      31.308  14.646  -2.935  1.00  0.00     0.200 C
BRANCH   7   8
ATOM      8  O   UNL     1      32.679  14.406  -3.273  1.00  0.00    -0.372 OA
BRANCH   8   9
ATOM      9  C   UNL     1      32.889  13.184  -3.976  1.00  0.00     0.191 C
BRANCH   9  10
ATOM     10  C   UNL     1      33.688  12.235  -3.109  1.00  0.00    -0.046 C
ATOM     11  C   UNL     1      34.725  12.716  -2.389  1.00  0.00     0.003 C
ATOM     12  G   UNL     1      35.679  11.991  -1.486  1.00  0.00     0.000 C
BRANCH  10  13
ATOM     13  C   UNL     1      33.270  10.779  -3.136  1.00  0.00     0.033 C
BRANCH  13  14
ATOM     14  C   UNL     1      31.925  10.548  -3.852  1.00  0.00     0.006 C
BRANCH  14  15
ATOM     15  C   UNL     1      31.174   9.294  -3.371  1.00  0.00     0.019 C
ATOM     16  G   UNL     1      30.698   8.390  -4.519  1.00  0.00     0.000 C
ENDBRANCH  14  15
ENDBRANCH  13  14
ENDBRANCH  10  13
ENDBRANCH   9  10
ENDBRANCH   8   9
ENDBRANCH   7   8
ENDBRANCH   6   7
BRANCH   1  17
ATOM     17  O   UNL     1      31.088  16.084  -5.453  1.00  0.00    -0.492 OA
BRANCH  17  18
ATOM     18  C   UNL     1      30.453  17.323  -5.079  1.00  0.00     0.245 C
BRANCH  18  19
ATOM     19  C   UNL     1      30.575  18.298  -6.265  1.00  0.00     0.126 C
BRANCH  19  20
ATOM     20  N   UNL     1      31.765  19.150  -6.355  1.00  0.00    -0.297 NA
ATOM     21  C   UNL     1      32.953  18.466  -6.855  1.00  0.00     0.085 C
ATOM     22  C   UNL     1      32.185  19.836  -5.125  1.00  0.00     0.056 C
ATOM     23  C   UNL     1      34.075  19.463  -6.596  1.00  0.00     0.017 C
ATOM     24  C   UNL     1      33.515  20.448  -5.574  1.00  0.00     0.020 C
ATOM     25  G   UNL     1      31.183  20.883  -4.617  1.00  0.00     0.000 C
ENDBRANCH  19  20
ENDBRANCH  18  19
ENDBRANCH  17  18
ENDBRANCH   1  17
BRANCH   4  26
ATOM     26  N   UNL     1      27.672  11.728  -4.696  1.00  0.00    -0.324 N
ATOM     27  H   UNL     1      27.030  11.684  -3.919  1.00  0.00     0.170 HD
BRANCH  26  28
ATOM     28  C   UNL     1      27.500  10.620  -5.524  1.00  0.00     0.227 A
ATOM     29  N   UNL     1      27.261   9.449  -4.913  1.00  0.00    -0.221 NA
ATOM     30  N   UNL     1      27.516  10.753  -6.852  1.00  0.00    -0.212 NA
ATOM     31  C   UNL     1      27.017   8.382  -5.703  1.00  0.00     0.117 A
ATOM     32  C   UNL     1      27.254   9.670  -7.606  1.00  0.00     0.086 A
ATOM     33  C   UNL     1      26.991   8.434  -7.074  1.00  0.00     0.050 A
BRANCH  32  34
ATOM     34  C   UNL     1      27.266   9.960  -9.037  1.00  0.00     0.053 A
ATOM     35  C   UNL     1      27.876   9.237 -10.044  1.00  0.00     0.022 A
ATOM     36  S   UNL     1      26.579  11.409  -9.639  1.00  0.00    -0.136 S
ATOM     37  C   UNL     1      27.855   9.921 -11.291  1.00  0.00     0.018 A
ATOM     38  C   UNL     1      27.271  11.169 -11.190  1.00  0.00     0.031 A
BRANCH  38  39
ATOM     39  C   UNL     1      27.228  12.255 -12.219  1.00  0.00     0.207 C
BRANCH  39  40
ATOM     40  O   UNL     1      27.385  13.519 -11.565  1.00  0.00    -0.372 OA
BRANCH  40  41
ATOM     41  C   UNL     1      27.549  14.638 -12.439  1.00  0.00     0.188 C
ATOM     42  G   UNL     1      28.999  14.879 -12.746  1.00  0.00     0.000 C
ENDBRANCH  40  41
ENDBRANCH  39  40
ENDBRANCH  38  39
ENDBRANCH  32  34
ENDBRANCH  26  28
ENDBRANCH   4  26
TORSDOF 0
ENDMDL
MODEL 8
REMARK VINA RESULT:      -7.2      2.694      6.333
REMARK SMILES C1=C2\CCC[C@@H]3CCCN3CCOc3ccc(cc3COC2)Nc2nccc(n2)-c2ccc(s2)COC/1
REMARK SMILES IDX 14 1 15 2 16 3 17 4 18 5 19 6 20 7 21 8 22 9 2 10 1 11 3 13
REMARK SMILES IDX 4 14 5 15 13 17 12 18 11 19 10 20 9 21 6 22 8 23 7 24 23 26
REMARK SMILES IDX 24 28 25 29 29 30 26 31 28 32 27 33 30 34 31 35 34 36 32 37
REMARK SMILES IDX 33 38 35 39 36 40 37 41
REMARK H PARENT 23 27
REMARK Flexibility Score:   91.800
ROOT
ATOM      1  C   UNL     1      31.111  15.581  -5.654  1.00  0.00     0.125 A
ATOM      2  C   UNL     1      30.150  15.979  -6.582  1.00  0.00     0.049 A
ATOM      3  C   UNL     1      28.873  15.410  -6.553  1.00  0.00     0.030 A
ATOM      4  C   UNL     1      28.526  14.453  -5.589  1.00  0.00     0.042 A
ATOM      5  C   UNL     1      29.497  14.108  -4.639  1.00  0.00     0.036 A
ATOM      6  C   UNL     1      30.796  14.651  -4.658  1.00  0.00     0.022 A
ENDROOT
BRANCH   6   7
ATOM      7  C   UNL     1      31.793  14.229  -3.604  1.00  0.00     0.200 C
BRANCH   7   8
ATOM      8  O   UNL     1      32.907  13.480  -4.105  1.00  0.00    -0.372 OA
BRANCH   8   9
ATOM      9  C   UNL     1      32.708  12.069  -4.073  1.00  0.00     0.191 C
BRANCH   9  10
ATOM     10  C   UNL     1      33.698  11.442  -3.116  1.00  0.00    -0.046 C
ATOM     11  C   UNL     1      34.604  12.229  -2.496  1.00  0.00     0.003 C
ATOM     12  G   UNL     1      35.695  11.856  -1.536  1.00  0.00     0.000 C
BRANCH  10  13
ATOM     13  C   UNL     1      33.612   9.939  -2.943  1.00  0.00     0.033 C
BRANCH  13  14
ATOM     14  C   UNL     1      32.206   9.457  -2.535  1.00  0.00     0.006 C
BRANCH  14  15
ATOM     15  C   UNL     1      31.668   8.308  -3.407  1.00  0.00     0.019 C
ATOM     16  G   UNL     1      30.696   8.777  -4.502  1.00  0.00     0.000 C
ENDBRANCH  14  15
ENDBRANCH  13  14
ENDBRANCH  10  13
ENDBRANCH   9  10
ENDBRANCH   8   9
ENDBRANCH   7   8
ENDBRANCH   6   7
BRANCH   1  17
ATOM     17  O   UNL     1      32.349  16.162  -5.704  1.00  0.00    -0.492 OA
BRANCH  17  18
ATOM     18  C   UNL     1      32.330  17.347  -6.524  1.00  0.00     0.245 C
BRANCH  18  19
ATOM     19  C   UNL     1      32.202  18.569  -5.593  1.00  0.00     0.126 C
BRANCH  19  20
ATOM     20  N   UNL     1      32.774  19.846  -6.029  1.00  0.00    -0.297 NA
ATOM     21  C   UNL     1      34.172  19.767  -6.442  1.00  0.00     0.085 C
ATOM     22  C   UNL     1      32.700  20.965  -5.079  1.00  0.00     0.056 C
ATOM     23  C   UNL     1      34.588  21.225  -6.575  1.00  0.00     0.017 C
ATOM     24  C   UNL     1      33.536  22.021  -5.808  1.00  0.00     0.020 C
ATOM     25  G   UNL     1      31.269  21.438  -4.775  1.00  0.00     0.000 C
ENDBRANCH  19  20
ENDBRANCH  18  19
ENDBRANCH  17  18
ENDBRANCH   1  17
BRANCH   4  26
ATOM     26  N   UNL     1      27.272  13.832  -5.664  1.00  0.00    -0.324 N
ATOM     27  H   UNL     1      26.636  13.955  -4.892  1.00  0.00     0.170 HD
BRANCH  26  28
ATOM     28  C   UNL     1      26.658  13.099  -6.679  1.00  0.00     0.227 A
ATOM     29  N   UNL     1      25.712  13.735  -7.387  1.00  0.00    -0.221 NA
ATOM     30  N   UNL     1      27.051  11.853  -6.953  1.00  0.00    -0.212 NA
ATOM     31  C   UNL     1      25.163  13.065  -8.422  1.00  0.00     0.117 A
ATOM     32  C   UNL     1      26.492  11.221  -8.001  1.00  0.00     0.086 A
ATOM     33  C   UNL     1      25.523  11.792  -8.787  1.00  0.00     0.050 A
BRANCH  32  34
ATOM     34  C   UNL     1      27.036   9.884  -8.212  1.00  0.00     0.053 A
ATOM     35  C   UNL     1      27.139   9.188  -9.401  1.00  0.00     0.022 A
ATOM     36  S   UNL     1      27.520   8.919  -6.883  1.00  0.00    -0.136 S
ATOM     37  C   UNL     1      27.530   7.835  -9.205  1.00  0.00     0.018 A
ATOM     38  C   UNL     1      27.668   7.522  -7.867  1.00  0.00     0.031 A
BRANCH  38  39
ATOM     39  C   UNL     1      27.879   6.175  -7.250  1.00  0.00     0.207 C
BRANCH  39  40
ATOM     40  O   UNL     1      29.104   6.192  -6.507  1.00  0.00    -0.372 OA
BRANCH  40  41
ATOM     41  C   UNL     1      29.090   5.430  -5.297  1.00  0.00     0.188 C
ATOM     42  G   UNL     1      27.685   5.156  -4.846  1.00  0.00     0.000 C
ENDBRANCH  40  41
ENDBRANCH  39  40
ENDBRANCH  38  39
ENDBRANCH  32  34
ENDBRANCH  26  28
ENDBRANCH   4  26
TORSDOF 0
ENDMDL
MODEL 9
REMARK VINA RESULT:      -7.1      2.414      4.794
REMARK SMILES C1=C2\CCC[C@@H]3CCCN3CCOc3ccc(cc3COC2)Nc2nccc(n2)-c2ccc(s2)COC/1
REMARK SMILES IDX 14 1 15 2 16 3 17 4 18 5 19 6 20 7 21 8 22 9 2 10 1 11 3 13
REMARK SMILES IDX 4 14 5 15 13 17 12 18 11 19 10 20 9 21 6 22 8 23 7 24 23 26
REMARK SMILES IDX 24 28 25 29 29 30 26 31 28 32 27 33 30 34 31 35 34 36 32 37
REMARK SMILES IDX 33 38 35 39 36 40 37 41
REMARK H PARENT 23 27
REMARK Flexibility Score:   91.800
ROOT
ATOM      1  C   UNL     1      29.356  15.340  -4.771  1.00  0.00     0.125 A
ATOM      2  C   UNL     1      30.423  14.444  -4.821  1.00  0.00     0.049 A
ATOM      3  C   UNL     1      30.188  13.093  -5.092  1.00  0.00     0.030 A
ATOM      4  C   UNL     1      28.892  12.615  -5.336  1.00  0.00     0.042 A
ATOM      5  C   UNL     1      27.846  13.547  -5.327  1.00  0.00     0.036 A
ATOM      6  C   UNL     1      28.052  14.909  -5.038  1.00  0.00     0.022 A
ENDROOT
BRANCH   6   7
ATOM      7  C   UNL     1      26.875  15.856  -5.041  1.00  0.00     0.200 C
BRANCH   7   8
ATOM      8  O   UNL     1      26.028  15.750  -6.192  1.00  0.00    -0.372 OA
BRANCH   8   9
ATOM      9  C   UNL     1      26.717  15.919  -7.427  1.00  0.00     0.191 C
BRANCH   9  10
ATOM     10  C   UNL     1      26.325  14.811  -8.379  1.00  0.00    -0.046 C
ATOM     11  C   UNL     1      25.152  14.167  -8.193  1.00  0.00     0.003 C
ATOM     12  G   UNL     1      24.552  13.031  -8.968  1.00  0.00     0.000 C
BRANCH  10  13
ATOM     13  C   UNL     1      27.314  14.482  -9.480  1.00  0.00     0.033 C
BRANCH  13  14
ATOM     14  C   UNL     1      26.982  15.172 -10.817  1.00  0.00     0.006 C
BRANCH  14  15
ATOM     15  C   UNL     1      28.173  15.921 -11.440  1.00  0.00     0.019 C
ATOM     16  G   UNL     1      27.765  17.192 -12.202  1.00  0.00     0.000 C
ENDBRANCH  14  15
ENDBRANCH  13  14
ENDBRANCH  10  13
ENDBRANCH   9  10
ENDBRANCH   8   9
ENDBRANCH   7   8
ENDBRANCH   6   7
BRANCH   1  17
ATOM     17  O   UNL     1      29.619  16.658  -4.511  1.00  0.00    -0.492 OA
BRANCH  17  18
ATOM     18  C   UNL     1      30.968  16.829  -4.033  1.00  0.00     0.245 C
BRANCH  18  19
ATOM     19  C   UNL     1      31.424  18.256  -4.394  1.00  0.00     0.126 C
BRANCH  19  20
ATOM     20  N   UNL     1      32.318  18.438  -5.542  1.00  0.00    -0.297 NA
ATOM     21  C   UNL     1      33.153  17.278  -5.839  1.00  0.00     0.085 C
ATOM     22  C   UNL     1      33.232  19.588  -5.496  1.00  0.00     0.056 C
ATOM     23  C   UNL     1      34.150  17.809  -6.861  1.00  0.00     0.017 C
ATOM     24  C   UNL     1      34.088  19.329  -6.738  1.00  0.00     0.020 C
ATOM     25  G   UNL     1      32.526  20.953  -5.528  1.00  0.00     0.000 C
ENDBRANCH  19  20
ENDBRANCH  18  19
ENDBRANCH  17  18
ENDBRANCH   1  17
BRANCH   4  26
ATOM     26  N   UNL     1      28.691  11.238  -5.495  1.00  0.00    -0.324 N
ATOM     27  H   UNL     1      27.918  10.936  -6.068  1.00  0.00     0.170 HD
BRANCH  26  28
ATOM     28  C   UNL     1      29.427  10.136  -5.063  1.00  0.00     0.227 A
ATOM     29  N   UNL     1      28.950   8.928  -5.402  1.00  0.00    -0.221 NA
ATOM     30  N   UNL     1      30.574  10.300  -4.401  1.00  0.00    -0.212 NA
ATOM     31  C   UNL     1      29.692   7.854  -5.057  1.00  0.00     0.117 A
ATOM     32  C   UNL     1      31.294   9.207  -4.086  1.00  0.00     0.086 A
ATOM     33  C   UNL     1      30.892   7.933  -4.397  1.00  0.00     0.050 A
BRANCH  32  34
ATOM     34  C   UNL     1      32.540   9.528  -3.399  1.00  0.00     0.053 A
ATOM     35  C   UNL     1      33.173   8.805  -2.406  1.00  0.00     0.022 A
ATOM     36  S   UNL     1      33.337  11.017  -3.687  1.00  0.00    -0.136 S
ATOM     37  C   UNL     1      34.258   9.517  -1.824  1.00  0.00     0.018 A
ATOM     38  C   UNL     1      34.394  10.784  -2.357  1.00  0.00     0.031 A
BRANCH  38  39
ATOM     39  C   UNL     1      35.281  11.894  -1.886  1.00  0.00     0.207 C
BRANCH  39  40
ATOM     40  O   UNL     1      35.056  13.047  -2.707  1.00  0.00    -0.372 OA
BRANCH  40  41
ATOM     41  C   UNL     1      33.853  13.765  -2.426  1.00  0.00     0.188 C
ATOM     42  G   UNL     1      33.910  15.158  -2.980  1.00  0.00     0.000 C
ENDBRANCH  40  41
ENDBRANCH  39  40
ENDBRANCH  38  39
ENDBRANCH  32  34
ENDBRANCH  26  28
ENDBRANCH   4  26
TORSDOF 0
ENDMDL
