MODEL 1
REMARK VINA RESULT:     -11.4      0.000      0.000
REMARK SMILES CN1CCN2c3ccc(cn3)-c3cnc4cccc(c4n3)-c3cc(F)c(c(F)c3)CN3CCS(=O)(=O)C[C@H]3CCC[C@@H]2C1
REMARK SMILES IDX 22 1 23 2 24 3 25 4 26 5 27 6 28 7 29 8 19 9 12 10 13 11
REMARK SMILES IDX 21 12 14 13 20 14 15 15 16 16 18 17 17 18 9 19 6 20 7 21
REMARK SMILES IDX 11 22 8 23 10 24 5 25 2 26 3 27 43 28 4 29 42 30 1 31 30 33
REMARK SMILES IDX 31 34 32 35 38 36 33 37 37 38 34 39 35 40 36 41 39 42 40 43
REMARK SMILES IDX 41 44
REMARK H PARENT
REMARK Flexibility Score:   82.900
ROOT
ATOM      1  C   UNL     1      33.216  13.471  -3.012  1.00  0.00    -0.010 A
ATOM      2  C   UNL     1      32.460  14.357  -2.227  1.00  0.00     0.048 A
ATOM      3  C   UNL     1      31.618  15.299  -2.818  1.00  0.00     0.131 A
ATOM      4  F   UNL     1      30.924  16.123  -2.020  1.00  0.00    -0.207 F
ATOM      5  C   UNL     1      31.481  15.395  -4.202  1.00  0.00     0.038 A
ATOM      6  C   UNL     1      32.269  14.545  -4.981  1.00  0.00     0.131 A
ATOM      7  F   UNL     1      32.235  14.632  -6.318  1.00  0.00    -0.207 F
ATOM      8  C   UNL     1      33.118  13.594  -4.405  1.00  0.00     0.048 A
ENDROOT
BRANCH   1   9
ATOM      9  C   UNL     1      34.060  12.428  -2.385  1.00  0.00     0.010 A
ATOM     10  C   UNL     1      32.275   9.378  -3.181  1.00  0.00     0.091 A
ATOM     11  C   UNL     1      33.068   8.436  -2.561  1.00  0.00     0.140 A
ATOM     12  N   UNL     1      32.596  10.691  -3.133  1.00  0.00    -0.244 NA
ATOM     13  N   UNL     1      34.194   8.771  -1.884  1.00  0.00    -0.252 NA
ATOM     14  C   UNL     1      33.703  11.067  -2.463  1.00  0.00     0.097 A
ATOM     15  C   UNL     1      34.511  10.085  -1.839  1.00  0.00     0.089 A
ATOM     16  C   UNL     1      35.656  10.484  -1.167  1.00  0.00     0.030 A
ATOM     17  C   UNL     1      35.230  12.793  -1.699  1.00  0.00     0.011 A
ATOM     18  C   UNL     1      36.025  11.827  -1.093  1.00  0.00     0.003 A
BRANCH  10  19
ATOM     19  C   UNL     1      31.061   9.101  -3.926  1.00  0.00     0.020 A
ATOM     20  C   UNL     1      29.061   8.783  -5.823  1.00  0.00     0.128 A
ATOM     21  C   UNL     1      29.807   7.678  -5.411  1.00  0.00     0.047 A
ATOM     22  N   UNL     1      29.191   9.975  -5.204  1.00  0.00    -0.239 NA
ATOM     23  C   UNL     1      30.817   7.838  -4.464  1.00  0.00     0.016 A
ATOM     24  C   UNL     1      30.191  10.116  -4.301  1.00  0.00     0.124 A
BRANCH  20  25
ATOM     25  N   UNL     1      28.284   8.710  -6.968  1.00  0.00    -0.351 N
ATOM     26  N   UNL     1      26.785   8.892  -9.400  1.00  0.00    -0.303 NA
ATOM     27  C   UNL     1      28.196   8.424  -9.427  1.00  0.00     0.105 C
ATOM     28  C   UNL     1      26.114   8.390  -8.184  1.00  0.00     0.109 C
ATOM     29  C   UNL     1      28.802   7.925  -8.088  1.00  0.00     0.134 C
ATOM     30  C   UNL     1      26.802   8.755  -6.829  1.00  0.00     0.097 C
ATOM     31  C   UNL     1      26.726  10.353  -9.466  1.00  0.00     0.105 C
ATOM     32  G   UNL     1      26.302   7.807  -5.707  1.00  0.00     0.000 C
ENDBRANCH  20  25
ENDBRANCH  10  19
ENDBRANCH   1   9
BRANCH   5  33
ATOM     33  C   UNL     1      30.567  16.425  -4.816  1.00  0.00     0.126 C
BRANCH  33  34
ATOM     34  N   UNL     1      29.140  16.015  -4.826  1.00  0.00    -0.294 NA
ATOM     35  C   UNL     1      29.051  14.614  -5.291  1.00  0.00     0.101 C
ATOM     36  C   UNL     1      28.236  16.924  -5.600  1.00  0.00     0.072 C
ATOM     37  C   UNL     1      27.700  13.988  -5.012  1.00  0.00     0.152 C
ATOM     38  C   UNL     1      26.771  16.537  -5.363  1.00  0.00     0.156 C
ATOM     39  S   UNL     1      26.443  14.877  -5.870  1.00  0.00     0.153 S
ATOM     40  O   UNL     1      25.160  14.484  -5.321  1.00  0.00    -0.229 OA
ATOM     41  O   UNL     1      26.696  14.773  -7.295  1.00  0.00    -0.229 OA
BRANCH  36  42
ATOM     42  C   UNL     1      28.436  18.420  -5.237  1.00  0.00     0.020 C
BRANCH  42  43
ATOM     43  C   UNL     1      29.109  19.294  -6.310  1.00  0.00     0.004 C
BRANCH  43  44
ATOM     44  C   UNL     1      30.247  20.113  -5.685  1.00  0.00     0.026 C
ATOM     45  G   UNL     1      31.665  19.701  -6.163  1.00  0.00     0.000 C
ENDBRANCH  43  44
ENDBRANCH  42  43
ENDBRANCH  36  42
ENDBRANCH  33  34
ENDBRANCH   5  33
TORSDOF 0
ENDMDL
MODEL 2
REMARK VINA RESULT:     -11.3      0.226      1.245
REMARK SMILES CN1CCN2c3ccc(cn3)-c3cnc4cccc(c4n3)-c3cc(F)c(c(F)c3)CN3CCS(=O)(=O)C[C@H]3CCC[C@@H]2C1
REMARK SMILES IDX 22 1 23 2 24 3 25 4 26 5 27 6 28 7 29 8 19 9 12 10 13 11
REMARK SMILES IDX 21 12 14 13 20 14 15 15 16 16 18 17 17 18 9 19 6 20 7 21
REMARK SMILES IDX 11 22 8 23 10 24 5 25 2 26 3 27 43 28 4 29 42 30 1 31 30 33
REMARK SMILES IDX 31 34 32 35 38 36 33 37 37 38 34 39 35 40 36 41 39 42 40 43
REMARK SMILES IDX 41 44
REMARK H PARENT
REMARK Flexibility Score:   82.900
ROOT
ATOM      1  C   UNL     1      33.136  13.514  -2.910  1.00  0.00    -0.010 A
ATOM      2  C   UNL     1      33.093  13.731  -4.297  1.00  0.00     0.048 A
ATOM      3  C   UNL     1      32.296  14.738  -4.841  1.00  0.00     0.131 A
ATOM      4  F   UNL     1      32.290  14.896  -6.173  1.00  0.00    -0.207 F
ATOM      5  C   UNL     1      31.521  15.574  -4.040  1.00  0.00     0.038 A
ATOM      6  C   UNL     1      31.529  15.326  -2.665  1.00  0.00     0.131 A
ATOM      7  F   UNL     1      30.754  16.051  -1.846  1.00  0.00    -0.207 F
ATOM      8  C   UNL     1      32.323  14.322  -2.102  1.00  0.00     0.048 A
ENDROOT
BRANCH   1   9
ATOM      9  C   UNL     1      34.032  12.489  -2.326  1.00  0.00     0.010 A
ATOM     10  C   UNL     1      32.331   9.395  -3.138  1.00  0.00     0.091 A
ATOM     11  C   UNL     1      33.172   8.469  -2.557  1.00  0.00     0.140 A
ATOM     12  N   UNL     1      32.608  10.717  -3.071  1.00  0.00    -0.244 NA
ATOM     13  N   UNL     1      34.303   8.830  -1.903  1.00  0.00    -0.252 NA
ATOM     14  C   UNL     1      33.719  11.118  -2.423  1.00  0.00     0.097 A
ATOM     15  C   UNL     1      34.576  10.153  -1.840  1.00  0.00     0.089 A
ATOM     16  C   UNL     1      35.725  10.578  -1.190  1.00  0.00     0.030 A
ATOM     17  C   UNL     1      35.207  12.882  -1.664  1.00  0.00     0.011 A
ATOM     18  C   UNL     1      36.050  11.931  -1.098  1.00  0.00     0.003 A
BRANCH  10  19
ATOM     19  C   UNL     1      31.108   9.091  -3.856  1.00  0.00     0.020 A
ATOM     20  C   UNL     1      29.075   8.726  -5.710  1.00  0.00     0.128 A
ATOM     21  C   UNL     1      29.853   7.638  -5.312  1.00  0.00     0.047 A
ATOM     22  N   UNL     1      29.193   9.923  -5.096  1.00  0.00    -0.239 NA
ATOM     23  C   UNL     1      30.879   7.822  -4.386  1.00  0.00     0.016 A
ATOM     24  C   UNL     1      30.208  10.086  -4.215  1.00  0.00     0.124 A
BRANCH  20  25
ATOM     25  N   UNL     1      28.276   8.634  -6.838  1.00  0.00    -0.351 N
ATOM     26  N   UNL     1      26.715   8.781  -9.233  1.00  0.00    -0.303 NA
ATOM     27  C   UNL     1      28.144   8.376  -9.298  1.00  0.00     0.105 C
ATOM     28  C   UNL     1      26.095   8.235  -8.010  1.00  0.00     0.109 C
ATOM     29  C   UNL     1      28.802   7.887  -7.980  1.00  0.00     0.134 C
ATOM     30  C   UNL     1      26.797   8.612  -6.666  1.00  0.00     0.097 C
ATOM     31  C   UNL     1      26.591  10.239  -9.278  1.00  0.00     0.105 C
ATOM     32  G   UNL     1      26.364   7.629  -5.546  1.00  0.00     0.000 C
ENDBRANCH  20  25
ENDBRANCH  10  19
ENDBRANCH   1   9
BRANCH   5  33
ATOM     33  C   UNL     1      30.664  16.653  -4.653  1.00  0.00     0.126 C
BRANCH  33  34
ATOM     34  N   UNL     1      29.230  16.282  -4.753  1.00  0.00    -0.294 NA
ATOM     35  C   UNL     1      29.133  14.862  -5.154  1.00  0.00     0.101 C
ATOM     36  C   UNL     1      28.415  17.174  -5.637  1.00  0.00     0.072 C
ATOM     37  C   UNL     1      27.746  14.288  -4.949  1.00  0.00     0.152 C
ATOM     38  C   UNL     1      26.925  16.840  -5.495  1.00  0.00     0.156 C
ATOM     39  S   UNL     1      26.586  15.165  -5.943  1.00  0.00     0.153 S
ATOM     40  O   UNL     1      25.253  14.836  -5.476  1.00  0.00    -0.229 OA
ATOM     41  O   UNL     1      26.942  14.982  -7.339  1.00  0.00    -0.229 OA
BRANCH  36  42
ATOM     42  C   UNL     1      28.633  18.681  -5.333  1.00  0.00     0.020 C
BRANCH  42  43
ATOM     43  C   UNL     1      29.386  19.487  -6.407  1.00  0.00     0.004 C
BRANCH  43  44
ATOM     44  C   UNL     1      30.520  20.295  -5.761  1.00  0.00     0.026 C
ATOM     45  G   UNL     1      31.944  19.812  -6.145  1.00  0.00     0.000 C
ENDBRANCH  43  44
ENDBRANCH  42  43
ENDBRANCH  36  42
ENDBRANCH  33  34
ENDBRANCH   5  33
TORSDOF 0
ENDMDL
MODEL 3
REMARK VINA RESULT:     -11.1      2.235      2.968
REMARK SMILES CN1CCN2c3ccc(cn3)-c3cnc4cccc(c4n3)-c3cc(F)c(c(F)c3)CN3CCS(=O)(=O)C[C@H]3CCC[C@@H]2C1
REMARK SMILES IDX 22 1 23 2 24 3 25 4 26 5 27 6 28 7 29 8 19 9 12 10 13 11
REMARK SMILES IDX 21 12 14 13 20 14 15 15 16 16 18 17 17 18 9 19 6 20 7 21
REMARK SMILES IDX 11 22 8 23 10 24 5 25 2 26 3 27 43 28 4 29 42 30 1 31 30 33
REMARK SMILES IDX 31 34 32 35 38 36 33 37 37 38 34 39 35 40 36 41 39 42 40 43
REMARK SMILES IDX 41 44
REMARK H PARENT
REMARK Flexibility Score:   82.900
ROOT
ATOM      1  C   UNL     1      32.923  13.523  -3.046  1.00  0.00    -0.010 A
ATOM      2  C   UNL     1      32.125  14.325  -2.212  1.00  0.00     0.048 A
ATOM      3  C   UNL     1      31.170  15.189  -2.749  1.00  0.00     0.131 A
ATOM      4  F   UNL     1      30.440  15.934  -1.906  1.00  0.00    -0.207 F
ATOM      5  C   UNL     1      30.960  15.288  -4.123  1.00  0.00     0.038 A
ATOM      6  C   UNL     1      31.786  14.526  -4.951  1.00  0.00     0.131 A
ATOM      7  F   UNL     1      31.681  14.625  -6.284  1.00  0.00    -0.207 F
ATOM      8  C   UNL     1      32.748  13.653  -4.431  1.00  0.00     0.048 A
ENDROOT
BRANCH   1   9
ATOM      9  C   UNL     1      33.890  12.558  -2.475  1.00  0.00     0.010 A
ATOM     10  C   UNL     1      32.327   9.365  -3.168  1.00  0.00     0.091 A
ATOM     11  C   UNL     1      33.234   8.495  -2.601  1.00  0.00     0.140 A
ATOM     12  N   UNL     1      32.536  10.700  -3.136  1.00  0.00    -0.244 NA
ATOM     13  N   UNL     1      34.367   8.927  -1.995  1.00  0.00    -0.252 NA
ATOM     14  C   UNL     1      33.647  11.171  -2.535  1.00  0.00     0.097 A
ATOM     15  C   UNL     1      34.572  10.263  -1.966  1.00  0.00     0.089 A
ATOM     16  C   UNL     1      35.720  10.760  -1.365  1.00  0.00     0.030 A
ATOM     17  C   UNL     1      35.065  13.024  -1.863  1.00  0.00     0.011 A
ATOM     18  C   UNL     1      35.976  12.130  -1.310  1.00  0.00     0.003 A
BRANCH  10  19
ATOM     19  C   UNL     1      31.097   8.983  -3.837  1.00  0.00     0.020 A
ATOM     20  C   UNL     1      29.029   8.463  -5.612  1.00  0.00     0.128 A
ATOM     21  C   UNL     1      29.862   7.425  -5.197  1.00  0.00     0.047 A
ATOM     22  N   UNL     1      29.114   9.687  -5.049  1.00  0.00    -0.239 NA
ATOM     23  C   UNL     1      30.906   7.686  -4.311  1.00  0.00     0.016 A
ATOM     24  C   UNL     1      30.147   9.926  -4.206  1.00  0.00     0.124 A
BRANCH  20  25
ATOM     25  N   UNL     1      28.201   8.295  -6.712  1.00  0.00    -0.351 N
ATOM     26  N   UNL     1      26.614   8.261  -9.093  1.00  0.00    -0.303 NA
ATOM     27  C   UNL     1      27.995   7.712  -9.110  1.00  0.00     0.105 C
ATOM     28  C   UNL     1      25.969   7.954  -7.801  1.00  0.00     0.109 C
ATOM     29  C   UNL     1      28.629   7.348  -7.741  1.00  0.00     0.134 C
ATOM     30  C   UNL     1      26.732   8.444  -6.528  1.00  0.00     0.097 C
ATOM     31  C   UNL     1      26.631   9.703  -9.342  1.00  0.00     0.105 C
ATOM     32  G   UNL     1      26.228   7.674  -5.279  1.00  0.00     0.000 C
ENDBRANCH  20  25
ENDBRANCH  10  19
ENDBRANCH   1   9
BRANCH   5  33
ATOM     33  C   UNL     1      29.924  16.234  -4.678  1.00  0.00     0.126 C
BRANCH  33  34
ATOM     34  N   UNL     1      30.502  17.486  -5.227  1.00  0.00    -0.294 NA
ATOM     35  C   UNL     1      31.454  18.042  -4.241  1.00  0.00     0.101 C
ATOM     36  C   UNL     1      29.491  18.498  -5.667  1.00  0.00     0.072 C
ATOM     37  C   UNL     1      32.350  19.112  -4.831  1.00  0.00     0.152 C
ATOM     38  C   UNL     1      30.184  19.646  -6.413  1.00  0.00     0.156 C
ATOM     39  S   UNL     1      31.372  20.464  -5.394  1.00  0.00     0.153 S
ATOM     40  O   UNL     1      32.201  21.294  -6.247  1.00  0.00    -0.229 OA
ATOM     41  O   UNL     1      30.681  21.040  -4.255  1.00  0.00    -0.229 OA
BRANCH  36  42
ATOM     42  C   UNL     1      28.388  17.890  -6.575  1.00  0.00     0.020 C
BRANCH  42  43
ATOM     43  C   UNL     1      27.051  17.561  -5.887  1.00  0.00     0.004 C
BRANCH  43  44
ATOM     44  C   UNL     1      26.611  16.134  -6.247  1.00  0.00     0.026 C
ATOM     45  G   UNL     1      27.455  15.472  -7.368  1.00  0.00     0.000 C
ENDBRANCH  43  44
ENDBRANCH  42  43
ENDBRANCH  36  42
ENDBRANCH  33  34
ENDBRANCH   5  33
TORSDOF 0
ENDMDL
MODEL 4
REMARK VINA RESULT:     -10.9      1.289      1.687
REMARK SMILES CN1CCN2c3ccc(cn3)-c3cnc4cccc(c4n3)-c3cc(F)c(c(F)c3)CN3CCS(=O)(=O)C[C@H]3CCC[C@@H]2C1
REMARK SMILES IDX 22 1 23 2 24 3 25 4 26 5 27 6 28 7 29 8 19 9 12 10 13 11
REMARK SMILES IDX 21 12 14 13 20 14 15 15 16 16 18 17 17 18 9 19 6 20 7 21
REMARK SMILES IDX 11 22 8 23 10 24 5 25 2 26 3 27 43 28 4 29 42 30 1 31 30 33
REMARK SMILES IDX 31 34 32 35 38 36 33 37 37 38 34 39 35 40 36 41 39 42 40 43
REMARK SMILES IDX 41 44
REMARK H PARENT
REMARK Flexibility Score:   82.900
ROOT
ATOM      1  C   UNL     1      33.507  13.302  -3.477  1.00  0.00    -0.010 A
ATOM      2  C   UNL     1      32.549  12.921  -4.431  1.00  0.00     0.048 A
ATOM      3  C   UNL     1      31.949  13.868  -5.262  1.00  0.00     0.131 A
ATOM      4  F   UNL     1      31.037  13.448  -6.152  1.00  0.00    -0.207 F
ATOM      5  C   UNL     1      32.278  15.221  -5.191  1.00  0.00     0.038 A
ATOM      6  C   UNL     1      33.195  15.603  -4.210  1.00  0.00     0.131 A
ATOM      7  F   UNL     1      33.504  16.897  -4.044  1.00  0.00    -0.207 F
ATOM      8  C   UNL     1      33.807  14.668  -3.369  1.00  0.00     0.048 A
ENDROOT
BRANCH   1   9
ATOM      9  C   UNL     1      34.193  12.291  -2.640  1.00  0.00     0.010 A
ATOM     10  C   UNL     1      32.153   9.338  -3.134  1.00  0.00     0.091 A
ATOM     11  C   UNL     1      32.799   8.429  -2.322  1.00  0.00     0.140 A
ATOM     12  N   UNL     1      32.607  10.607  -3.249  1.00  0.00    -0.244 NA
ATOM     13  N   UNL     1      33.906   8.755  -1.611  1.00  0.00    -0.252 NA
ATOM     14  C   UNL     1      33.700  10.973  -2.551  1.00  0.00     0.097 A
ATOM     15  C   UNL     1      34.356  10.025  -1.729  1.00  0.00     0.089 A
ATOM     16  C   UNL     1      35.490  10.411  -1.030  1.00  0.00     0.030 A
ATOM     17  C   UNL     1      35.346  12.643  -1.920  1.00  0.00     0.011 A
ATOM     18  C   UNL     1      35.992  11.708  -1.119  1.00  0.00     0.003 A
BRANCH  10  19
ATOM     19  C   UNL     1      30.969   9.067  -3.928  1.00  0.00     0.020 A
ATOM     20  C   UNL     1      29.046   8.764  -5.905  1.00  0.00     0.128 A
ATOM     21  C   UNL     1      29.774   7.656  -5.471  1.00  0.00     0.047 A
ATOM     22  N   UNL     1      29.152   9.953  -5.275  1.00  0.00    -0.239 NA
ATOM     23  C   UNL     1      30.745   7.809  -4.484  1.00  0.00     0.016 A
ATOM     24  C   UNL     1      30.116  10.086  -4.332  1.00  0.00     0.124 A
BRANCH  20  25
ATOM     25  N   UNL     1      28.314   8.700  -7.081  1.00  0.00    -0.351 N
ATOM     26  N   UNL     1      26.906   8.903  -9.564  1.00  0.00    -0.303 NA
ATOM     27  C   UNL     1      28.327   8.466  -9.547  1.00  0.00     0.105 C
ATOM     28  C   UNL     1      26.200   8.361  -8.386  1.00  0.00     0.109 C
ATOM     29  C   UNL     1      28.893   7.951  -8.196  1.00  0.00     0.134 C
ATOM     30  C   UNL     1      26.828   8.711  -6.998  1.00  0.00     0.097 C
ATOM     31  C   UNL     1      26.817  10.363  -9.603  1.00  0.00     0.105 C
ATOM     32  G   UNL     1      26.306   7.729  -5.917  1.00  0.00     0.000 C
ENDBRANCH  20  25
ENDBRANCH  10  19
ENDBRANCH   1   9
BRANCH   5  33
ATOM     33  C   UNL     1      31.611  16.224  -6.098  1.00  0.00     0.126 C
BRANCH  33  34
ATOM     34  N   UNL     1      30.171  16.425  -5.798  1.00  0.00    -0.294 NA
ATOM     35  C   UNL     1      29.373  15.908  -6.930  1.00  0.00     0.101 C
ATOM     36  C   UNL     1      29.799  17.831  -5.442  1.00  0.00     0.072 C
ATOM     37  C   UNL     1      27.906  15.744  -6.587  1.00  0.00     0.152 C
ATOM     38  C   UNL     1      28.350  17.883  -4.941  1.00  0.00     0.156 C
ATOM     39  S   UNL     1      27.215  17.308  -6.166  1.00  0.00     0.153 S
ATOM     40  O   UNL     1      25.937  17.076  -5.521  1.00  0.00    -0.229 OA
ATOM     41  O   UNL     1      27.306  18.180  -7.323  1.00  0.00    -0.229 OA
BRANCH  36  42
ATOM     42  C   UNL     1      30.735  18.446  -4.367  1.00  0.00     0.020 C
BRANCH  42  43
ATOM     43  C   UNL     1      31.211  19.887  -4.626  1.00  0.00     0.004 C
BRANCH  43  44
ATOM     44  C   UNL     1      31.946  19.964  -5.972  1.00  0.00     0.026 C
ATOM     45  G   UNL     1      33.466  19.668  -5.884  1.00  0.00     0.000 C
ENDBRANCH  43  44
ENDBRANCH  42  43
ENDBRANCH  36  42
ENDBRANCH  33  34
ENDBRANCH   5  33
TORSDOF 0
ENDMDL
MODEL 5
REMARK VINA RESULT:     -10.8      0.723      1.602
REMARK SMILES CN1CCN2c3ccc(cn3)-c3cnc4cccc(c4n3)-c3cc(F)c(c(F)c3)CN3CCS(=O)(=O)C[C@H]3CCC[C@@H]2C1
REMARK SMILES IDX 22 1 23 2 24 3 25 4 26 5 27 6 28 7 29 8 19 9 12 10 13 11
REMARK SMILES IDX 21 12 14 13 20 14 15 15 16 16 18 17 17 18 9 19 6 20 7 21
REMARK SMILES IDX 11 22 8 23 10 24 5 25 2 26 3 27 43 28 4 29 42 30 1 31 30 33
REMARK SMILES IDX 31 34 32 35 38 36 33 37 37 38 34 39 35 40 36 41 39 42 40 43
REMARK SMILES IDX 41 44
REMARK H PARENT
REMARK Flexibility Score:   82.900
ROOT
ATOM      1  C   UNL     1      33.117  13.488  -3.017  1.00  0.00    -0.010 A
ATOM      2  C   UNL     1      33.052  13.639  -4.411  1.00  0.00     0.048 A
ATOM      3  C   UNL     1      32.264  14.635  -4.989  1.00  0.00     0.131 A
ATOM      4  F   UNL     1      32.237  14.731  -6.326  1.00  0.00    -0.207 F
ATOM      5  C   UNL     1      31.520  15.524  -4.214  1.00  0.00     0.038 A
ATOM      6  C   UNL     1      31.549  15.341  -2.830  1.00  0.00     0.131 A
ATOM      7  F   UNL     1      30.803  16.119  -2.033  1.00  0.00    -0.207 F
ATOM      8  C   UNL     1      32.334  14.349  -2.234  1.00  0.00     0.048 A
ENDROOT
BRANCH   1   9
ATOM      9  C   UNL     1      34.003  12.474  -2.400  1.00  0.00     0.010 A
ATOM     10  C   UNL     1      32.296   9.368  -3.150  1.00  0.00     0.091 A
ATOM     11  C   UNL     1      33.128   8.453  -2.540  1.00  0.00     0.140 A
ATOM     12  N   UNL     1      32.578  10.690  -3.114  1.00  0.00    -0.244 NA
ATOM     13  N   UNL     1      34.256   8.825  -1.886  1.00  0.00    -0.252 NA
ATOM     14  C   UNL     1      33.686  11.102  -2.466  1.00  0.00     0.097 A
ATOM     15  C   UNL     1      34.533  10.148  -1.853  1.00  0.00     0.089 A
ATOM     16  C   UNL     1      35.679  10.584  -1.204  1.00  0.00     0.030 A
ATOM     17  C   UNL     1      35.174  12.878  -1.738  1.00  0.00     0.011 A
ATOM     18  C   UNL     1      36.008  11.938  -1.142  1.00  0.00     0.003 A
BRANCH  10  19
ATOM     19  C   UNL     1      31.078   9.050  -3.871  1.00  0.00     0.020 A
ATOM     20  C   UNL     1      29.050   8.673  -5.727  1.00  0.00     0.128 A
ATOM     21  C   UNL     1      29.848   7.595  -5.344  1.00  0.00     0.047 A
ATOM     22  N   UNL     1      29.146   9.864  -5.099  1.00  0.00    -0.239 NA
ATOM     23  C   UNL     1      30.871   7.785  -4.417  1.00  0.00     0.016 A
ATOM     24  C   UNL     1      30.160  10.034  -4.217  1.00  0.00     0.124 A
BRANCH  20  25
ATOM     25  N   UNL     1      28.251   8.581  -6.857  1.00  0.00    -0.351 N
ATOM     26  N   UNL     1      26.704   8.723  -9.261  1.00  0.00    -0.303 NA
ATOM     27  C   UNL     1      28.116   8.264  -9.309  1.00  0.00     0.105 C
ATOM     28  C   UNL     1      26.060   8.233  -8.026  1.00  0.00     0.109 C
ATOM     29  C   UNL     1      28.752   7.785  -7.976  1.00  0.00     0.134 C
ATOM     30  C   UNL     1      26.772   8.619  -6.689  1.00  0.00     0.097 C
ATOM     31  C   UNL     1      26.634  10.183  -9.345  1.00  0.00     0.105 C
ATOM     32  G   UNL     1      26.299   7.683  -5.546  1.00  0.00     0.000 C
ENDBRANCH  20  25
ENDBRANCH  10  19
ENDBRANCH   1   9
BRANCH   5  33
ATOM     33  C   UNL     1      30.673  16.589  -4.864  1.00  0.00     0.126 C
BRANCH  33  34
ATOM     34  N   UNL     1      29.254  16.191  -5.036  1.00  0.00    -0.294 NA
ATOM     35  C   UNL     1      29.155  14.720  -4.919  1.00  0.00     0.101 C
ATOM     36  C   UNL     1      28.610  16.701  -6.287  1.00  0.00     0.072 C
ATOM     37  C   UNL     1      27.730  14.241  -4.731  1.00  0.00     0.152 C
ATOM     38  C   UNL     1      27.102  16.422  -6.257  1.00  0.00     0.156 C
ATOM     39  S   UNL     1      26.760  14.694  -6.129  1.00  0.00     0.153 S
ATOM     40  O   UNL     1      25.362  14.537  -5.777  1.00  0.00    -0.229 OA
ATOM     41  O   UNL     1      27.302  14.030  -7.301  1.00  0.00    -0.229 OA
BRANCH  36  42
ATOM     42  C   UNL     1      28.845  18.220  -6.507  1.00  0.00     0.020 C
BRANCH  42  43
ATOM     43  C   UNL     1      27.689  19.151  -6.101  1.00  0.00     0.004 C
BRANCH  43  44
ATOM     44  C   UNL     1      27.329  20.084  -7.266  1.00  0.00     0.026 C
ATOM     45  G   UNL     1      26.606  21.388  -6.837  1.00  0.00     0.000 C
ENDBRANCH  43  44
ENDBRANCH  42  43
ENDBRANCH  36  42
ENDBRANCH  33  34
ENDBRANCH   5  33
TORSDOF 0
ENDMDL
MODEL 6
REMARK VINA RESULT:     -10.7      1.279      1.432
REMARK SMILES CN1CCN2c3ccc(cn3)-c3cnc4cccc(c4n3)-c3cc(F)c(c(F)c3)CN3CCS(=O)(=O)C[C@H]3CCC[C@@H]2C1
REMARK SMILES IDX 22 1 23 2 24 3 25 4 26 5 27 6 28 7 29 8 19 9 12 10 13 11
REMARK SMILES IDX 21 12 14 13 20 14 15 15 16 16 18 17 17 18 9 19 6 20 7 21
REMARK SMILES IDX 11 22 8 23 10 24 5 25 2 26 3 27 43 28 4 29 42 30 1 31 30 33
REMARK SMILES IDX 31 34 32 35 38 36 33 37 37 38 34 39 35 40 36 41 39 42 40 43
REMARK SMILES IDX 41 44
REMARK H PARENT
REMARK Flexibility Score:   82.900
ROOT
ATOM      1  C   UNL     1      33.617  13.248  -3.507  1.00  0.00    -0.010 A
ATOM      2  C   UNL     1      33.919  14.617  -3.415  1.00  0.00     0.048 A
ATOM      3  C   UNL     1      33.266  15.551  -4.219  1.00  0.00     0.131 A
ATOM      4  F   UNL     1      33.598  16.844  -4.092  1.00  0.00    -0.207 F
ATOM      5  C   UNL     1      32.285  15.173  -5.135  1.00  0.00     0.038 A
ATOM      6  C   UNL     1      32.020  13.808  -5.258  1.00  0.00     0.131 A
ATOM      7  F   UNL     1      31.137  13.373  -6.167  1.00  0.00    -0.207 F
ATOM      8  C   UNL     1      32.665  12.857  -4.460  1.00  0.00     0.048 A
ENDROOT
BRANCH   1   9
ATOM      9  C   UNL     1      34.262  12.263  -2.609  1.00  0.00     0.010 A
ATOM     10  C   UNL     1      32.176   9.330  -3.019  1.00  0.00     0.091 A
ATOM     11  C   UNL     1      32.784   8.447  -2.151  1.00  0.00     0.140 A
ATOM     12  N   UNL     1      32.657  10.583  -3.180  1.00  0.00    -0.244 NA
ATOM     13  N   UNL     1      33.880   8.784  -1.429  1.00  0.00    -0.252 NA
ATOM     14  C   UNL     1      33.741  10.960  -2.473  1.00  0.00     0.097 A
ATOM     15  C   UNL     1      34.358  10.038  -1.593  1.00  0.00     0.089 A
ATOM     16  C   UNL     1      35.483  10.434  -0.884  1.00  0.00     0.030 A
ATOM     17  C   UNL     1      35.405  12.626  -1.878  1.00  0.00     0.011 A
ATOM     18  C   UNL     1      36.013  11.717  -1.019  1.00  0.00     0.003 A
BRANCH  10  19
ATOM     19  C   UNL     1      31.006   9.046  -3.829  1.00  0.00     0.020 A
ATOM     20  C   UNL     1      29.105   8.740  -5.827  1.00  0.00     0.128 A
ATOM     21  C   UNL     1      29.864   7.643  -5.419  1.00  0.00     0.047 A
ATOM     22  N   UNL     1      29.172   9.914  -5.163  1.00  0.00    -0.239 NA
ATOM     23  C   UNL     1      30.823   7.797  -4.421  1.00  0.00     0.016 A
ATOM     24  C   UNL     1      30.125  10.049  -4.210  1.00  0.00     0.124 A
BRANCH  20  25
ATOM     25  N   UNL     1      28.384   8.687  -7.010  1.00  0.00    -0.351 N
ATOM     26  N   UNL     1      27.013   8.905  -9.513  1.00  0.00    -0.303 NA
ATOM     27  C   UNL     1      28.410   8.400  -9.470  1.00  0.00     0.105 C
ATOM     28  C   UNL     1      26.269   8.423  -8.332  1.00  0.00     0.109 C
ATOM     29  C   UNL     1      28.936   7.887  -8.103  1.00  0.00     0.134 C
ATOM     30  C   UNL     1      26.899   8.771  -6.944  1.00  0.00     0.097 C
ATOM     31  C   UNL     1      26.996  10.367  -9.582  1.00  0.00     0.105 C
ATOM     32  G   UNL     1      26.319   7.839  -5.848  1.00  0.00     0.000 C
ENDBRANCH  20  25
ENDBRANCH  10  19
ENDBRANCH   1   9
BRANCH   5  33
ATOM     33  C   UNL     1      31.597  16.203  -5.995  1.00  0.00     0.126 C
BRANCH  33  34
ATOM     34  N   UNL     1      30.156  16.368  -5.680  1.00  0.00    -0.294 NA
ATOM     35  C   UNL     1      29.359  15.843  -6.809  1.00  0.00     0.101 C
ATOM     36  C   UNL     1      29.754  17.760  -5.306  1.00  0.00     0.072 C
ATOM     37  C   UNL     1      27.900  15.641  -6.454  1.00  0.00     0.152 C
ATOM     38  C   UNL     1      28.310  17.773  -4.791  1.00  0.00     0.156 C
ATOM     39  S   UNL     1      27.176  17.184  -6.011  1.00  0.00     0.153 S
ATOM     40  O   UNL     1      25.910  16.916  -5.356  1.00  0.00    -0.229 OA
ATOM     41  O   UNL     1      27.236  18.069  -7.160  1.00  0.00    -0.229 OA
BRANCH  36  42
ATOM     42  C   UNL     1      30.686  18.386  -4.234  1.00  0.00     0.020 C
BRANCH  42  43
ATOM     43  C   UNL     1      31.161  19.826  -4.505  1.00  0.00     0.004 C
BRANCH  43  44
ATOM     44  C   UNL     1      31.937  19.883  -5.829  1.00  0.00     0.026 C
ATOM     45  G   UNL     1      33.479  19.852  -5.664  1.00  0.00     0.000 C
ENDBRANCH  43  44
ENDBRANCH  42  43
ENDBRANCH  36  42
ENDBRANCH  33  34
ENDBRANCH   5  33
TORSDOF 0
ENDMDL
MODEL 7
REMARK VINA RESULT:     -10.6      2.416      3.235
REMARK SMILES CN1CCN2c3ccc(cn3)-c3cnc4cccc(c4n3)-c3cc(F)c(c(F)c3)CN3CCS(=O)(=O)C[C@H]3CCC[C@@H]2C1
REMARK SMILES IDX 22 1 23 2 24 3 25 4 26 5 27 6 28 7 29 8 19 9 12 10 13 11
REMARK SMILES IDX 21 12 14 13 20 14 15 15 16 16 18 17 17 18 9 19 6 20 7 21
REMARK SMILES IDX 11 22 8 23 10 24 5 25 2 26 3 27 43 28 4 29 42 30 1 31 30 33
REMARK SMILES IDX 31 34 32 35 38 36 33 37 37 38 34 39 35 40 36 41 39 42 40 43
REMARK SMILES IDX 41 44
REMARK H PARENT
REMARK Flexibility Score:   82.900
ROOT
ATOM      1  C   UNL     1      32.721  13.647  -3.216  1.00  0.00    -0.010 A
ATOM      2  C   UNL     1      32.540  13.761  -4.604  1.00  0.00     0.048 A
ATOM      3  C   UNL     1      31.610  14.656  -5.135  1.00  0.00     0.131 A
ATOM      4  F   UNL     1      31.475  14.720  -6.468  1.00  0.00    -0.207 F
ATOM      5  C   UNL     1      30.834  15.478  -4.319  1.00  0.00     0.038 A
ATOM      6  C   UNL     1      30.983  15.329  -2.939  1.00  0.00     0.131 A
ATOM      7  F   UNL     1      30.218  16.041  -2.098  1.00  0.00    -0.207 F
ATOM      8  C   UNL     1      31.910  14.438  -2.389  1.00  0.00     0.048 A
ENDROOT
BRANCH   1   9
ATOM      9  C   UNL     1      33.753  12.746  -2.654  1.00  0.00     0.010 A
ATOM     10  C   UNL     1      32.328   9.463  -3.213  1.00  0.00     0.091 A
ATOM     11  C   UNL     1      33.295   8.654  -2.655  1.00  0.00     0.140 A
ATOM     12  N   UNL     1      32.472  10.807  -3.222  1.00  0.00    -0.244 NA
ATOM     13  N   UNL     1      34.424   9.156  -2.098  1.00  0.00    -0.252 NA
ATOM     14  C   UNL     1      33.577  11.348  -2.671  1.00  0.00     0.097 A
ATOM     15  C   UNL     1      34.564  10.501  -2.110  1.00  0.00     0.089 A
ATOM     16  C   UNL     1      35.704  11.070  -1.560  1.00  0.00     0.030 A
ATOM     17  C   UNL     1      34.923  13.284  -2.093  1.00  0.00     0.011 A
ATOM     18  C   UNL     1      35.894  12.451  -1.549  1.00  0.00     0.003 A
BRANCH  10  19
ATOM     19  C   UNL     1      31.097   9.004  -3.830  1.00  0.00     0.020 A
ATOM     20  C   UNL     1      29.003   8.333  -5.523  1.00  0.00     0.128 A
ATOM     21  C   UNL     1      29.896   7.347  -5.100  1.00  0.00     0.047 A
ATOM     22  N   UNL     1      29.049   9.577  -5.003  1.00  0.00    -0.239 NA
ATOM     23  C   UNL     1      30.951   7.685  -4.256  1.00  0.00     0.016 A
ATOM     24  C   UNL     1      30.094   9.891  -4.200  1.00  0.00     0.124 A
BRANCH  20  25
ATOM     25  N   UNL     1      28.152   8.090  -6.590  1.00  0.00    -0.351 N
ATOM     26  N   UNL     1      26.528   7.885  -8.938  1.00  0.00    -0.303 NA
ATOM     27  C   UNL     1      27.884   7.275  -8.914  1.00  0.00     0.105 C
ATOM     28  C   UNL     1      25.890   7.740  -7.614  1.00  0.00     0.109 C
ATOM     29  C   UNL     1      28.523   7.025  -7.521  1.00  0.00     0.134 C
ATOM     30  C   UNL     1      26.693   8.322  -6.406  1.00  0.00     0.097 C
ATOM     31  C   UNL     1      26.603   9.292  -9.333  1.00  0.00     0.105 C
ATOM     32  G   UNL     1      26.177   7.707  -5.079  1.00  0.00     0.000 C
ENDBRANCH  20  25
ENDBRANCH  10  19
ENDBRANCH   1   9
BRANCH   5  33
ATOM     33  C   UNL     1      29.833  16.434  -4.918  1.00  0.00     0.126 C
BRANCH  33  34
ATOM     34  N   UNL     1      30.437  17.711  -5.373  1.00  0.00    -0.294 NA
ATOM     35  C   UNL     1      31.580  18.038  -4.493  1.00  0.00     0.101 C
ATOM     36  C   UNL     1      29.473  18.850  -5.490  1.00  0.00     0.072 C
ATOM     37  C   UNL     1      32.473  19.118  -5.067  1.00  0.00     0.152 C
ATOM     38  C   UNL     1      30.149  20.047  -6.171  1.00  0.00     0.156 C
ATOM     39  S   UNL     1      31.554  20.609  -5.260  1.00  0.00     0.153 S
ATOM     40  O   UNL     1      32.317  21.500  -6.114  1.00  0.00    -0.229 OA
ATOM     41  O   UNL     1      31.107  21.049  -3.951  1.00  0.00    -0.229 OA
BRANCH  36  42
ATOM     42  C   UNL     1      28.189  18.471  -6.276  1.00  0.00     0.020 C
BRANCH  42  43
ATOM     43  C   UNL     1      27.302  19.645  -6.732  1.00  0.00     0.004 C
BRANCH  43  44
ATOM     44  C   UNL     1      26.943  19.487  -8.216  1.00  0.00     0.026 C
ATOM     45  G   UNL     1      26.797  20.829  -8.981  1.00  0.00     0.000 C
ENDBRANCH  43  44
ENDBRANCH  42  43
ENDBRANCH  36  42
ENDBRANCH  33  34
ENDBRANCH   5  33
TORSDOF 0
ENDMDL
MODEL 8
REMARK VINA RESULT:     -10.5      2.687      3.180
REMARK SMILES CN1CCN2c3ccc(cn3)-c3cnc4cccc(c4n3)-c3cc(F)c(c(F)c3)CN3CCS(=O)(=O)C[C@H]3CCC[C@@H]2C1
REMARK SMILES IDX 22 1 23 2 24 3 25 4 26 5 27 6 28 7 29 8 19 9 12 10 13 11
REMARK SMILES IDX 21 12 14 13 20 14 15 15 16 16 18 17 17 18 9 19 6 20 7 21
REMARK SMILES IDX 11 22 8 23 10 24 5 25 2 26 3 27 43 28 4 29 42 30 1 31 30 33
REMARK SMILES IDX 31 34 32 35 38 36 33 37 37 38 34 39 35 40 36 41 39 42 40 43
REMARK SMILES IDX 41 44
REMARK H PARENT
REMARK Flexibility Score:   82.900
ROOT
ATOM      1  C   UNL     1      33.277  13.450  -3.190  1.00  0.00    -0.010 A
ATOM      2  C   UNL     1      32.820  14.601  -2.527  1.00  0.00     0.048 A
ATOM      3  C   UNL     1      32.000  15.524  -3.177  1.00  0.00     0.131 A
ATOM      4  F   UNL     1      31.597  16.608  -2.498  1.00  0.00    -0.207 F
ATOM      5  C   UNL     1      31.594  15.343  -4.498  1.00  0.00     0.038 A
ATOM      6  C   UNL     1      32.088  14.222  -5.169  1.00  0.00     0.131 A
ATOM      7  F   UNL     1      31.789  14.025  -6.461  1.00  0.00    -0.207 F
ATOM      8  C   UNL     1      32.909  13.286  -4.533  1.00  0.00     0.048 A
ENDROOT
BRANCH   1   9
ATOM      9  C   UNL     1      34.092  12.437  -2.481  1.00  0.00     0.010 A
ATOM     10  C   UNL     1      32.277   9.368  -3.123  1.00  0.00     0.091 A
ATOM     11  C   UNL     1      33.043   8.455  -2.428  1.00  0.00     0.140 A
ATOM     12  N   UNL     1      32.617  10.677  -3.150  1.00  0.00    -0.244 NA
ATOM     13  N   UNL     1      34.160   8.816  -1.751  1.00  0.00    -0.252 NA
ATOM     14  C   UNL     1      33.716  11.078  -2.482  1.00  0.00     0.097 A
ATOM     15  C   UNL     1      34.496  10.126  -1.782  1.00  0.00     0.089 A
ATOM     16  C   UNL     1      35.634  10.550  -1.112  1.00  0.00     0.030 A
ATOM     17  C   UNL     1      35.254  12.828  -1.796  1.00  0.00     0.011 A
ATOM     18  C   UNL     1      36.022  11.890  -1.114  1.00  0.00     0.003 A
BRANCH  10  19
ATOM     19  C   UNL     1      31.074   9.062  -3.874  1.00  0.00     0.020 A
ATOM     20  C   UNL     1      29.092   8.694  -5.781  1.00  0.00     0.128 A
ATOM     21  C   UNL     1      29.862   7.608  -5.363  1.00  0.00     0.047 A
ATOM     22  N   UNL     1      29.191   9.891  -5.164  1.00  0.00    -0.239 NA
ATOM     23  C   UNL     1      30.862   7.793  -4.411  1.00  0.00     0.016 A
ATOM     24  C   UNL     1      30.183  10.056  -4.256  1.00  0.00     0.124 A
BRANCH  20  25
ATOM     25  N   UNL     1      28.323   8.602  -6.931  1.00  0.00    -0.351 N
ATOM     26  N   UNL     1      26.852   8.737  -9.382  1.00  0.00    -0.303 NA
ATOM     27  C   UNL     1      28.249   8.228  -9.378  1.00  0.00     0.105 C
ATOM     28  C   UNL     1      26.156   8.300  -8.156  1.00  0.00     0.109 C
ATOM     29  C   UNL     1      28.829   7.761  -8.016  1.00  0.00     0.134 C
ATOM     30  C   UNL     1      26.843   8.695  -6.808  1.00  0.00     0.097 C
ATOM     31  C   UNL     1      26.836  10.195  -9.503  1.00  0.00     0.105 C
ATOM     32  G   UNL     1      26.305   7.804  -5.657  1.00  0.00     0.000 C
ENDBRANCH  20  25
ENDBRANCH  10  19
ENDBRANCH   1   9
BRANCH   5  33
ATOM     33  C   UNL     1      30.711  16.358  -5.179  1.00  0.00     0.126 C
BRANCH  33  34
ATOM     34  N   UNL     1      31.470  17.432  -5.868  1.00  0.00    -0.294 NA
ATOM     35  C   UNL     1      32.916  17.150  -5.740  1.00  0.00     0.101 C
ATOM     36  C   UNL     1      31.126  18.820  -5.427  1.00  0.00     0.072 C
ATOM     37  C   UNL     1      33.761  17.975  -6.688  1.00  0.00     0.152 C
ATOM     38  C   UNL     1      31.797  19.848  -6.347  1.00  0.00     0.156 C
ATOM     39  S   UNL     1      33.556  19.688  -6.331  1.00  0.00     0.153 S
ATOM     40  O   UNL     1      34.087  20.447  -7.447  1.00  0.00    -0.229 OA
ATOM     41  O   UNL     1      34.028  19.938  -4.981  1.00  0.00    -0.229 OA
BRANCH  36  42
ATOM     42  C   UNL     1      29.595  19.080  -5.401  1.00  0.00     0.020 C
BRANCH  42  43
ATOM     43  C   UNL     1      29.072  20.148  -6.378  1.00  0.00     0.004 C
BRANCH  43  44
ATOM     44  C   UNL     1      27.904  19.582  -7.200  1.00  0.00     0.026 C
ATOM     45  G   UNL     1      26.523  20.193  -6.845  1.00  0.00     0.000 C
ENDBRANCH  43  44
ENDBRANCH  42  43
ENDBRANCH  36  42
ENDBRANCH  33  34
ENDBRANCH   5  33
TORSDOF 0
ENDMDL
MODEL 9
REMARK VINA RESULT:     -10.5      1.265      1.965
REMARK SMILES CN1CCN2c3ccc(cn3)-c3cnc4cccc(c4n3)-c3cc(F)c(c(F)c3)CN3CCS(=O)(=O)C[C@H]3CCC[C@@H]2C1
REMARK SMILES IDX 22 1 23 2 24 3 25 4 26 5 27 6 28 7 29 8 19 9 12 10 13 11
REMARK SMILES IDX 21 12 14 13 20 14 15 15 16 16 18 17 17 18 9 19 6 20 7 21
REMARK SMILES IDX 11 22 8 23 10 24 5 25 2 26 3 27 43 28 4 29 42 30 1 31 30 33
REMARK SMILES IDX 31 34 32 35 38 36 33 37 37 38 34 39 35 40 36 41 39 42 40 43
REMARK SMILES IDX 41 44
REMARK H PARENT
REMARK Flexibility Score:   82.900
ROOT
ATOM      1  C   UNL     1      33.188  13.481  -3.004  1.00  0.00    -0.010 A
ATOM      2  C   UNL     1      32.380  14.397  -2.311  1.00  0.00     0.048 A
ATOM      3  C   UNL     1      31.507  15.243  -2.994  1.00  0.00     0.131 A
ATOM      4  F   UNL     1      30.762  16.101  -2.281  1.00  0.00    -0.207 F
ATOM      5  C   UNL     1      31.391  15.212  -4.383  1.00  0.00     0.038 A
ATOM      6  C   UNL     1      32.230  14.334  -5.073  1.00  0.00     0.131 A
ATOM      7  F   UNL     1      32.215  14.303  -6.413  1.00  0.00    -0.207 F
ATOM      8  C   UNL     1      33.110  13.477  -4.404  1.00  0.00     0.048 A
ENDROOT
BRANCH   1   9
ATOM      9  C   UNL     1      34.067  12.537  -2.276  1.00  0.00     0.010 A
ATOM     10  C   UNL     1      32.702   9.311  -3.199  1.00  0.00     0.091 A
ATOM     11  C   UNL     1      33.520   8.461  -2.485  1.00  0.00     0.140 A
ATOM     12  N   UNL     1      32.877  10.650  -3.141  1.00  0.00    -0.244 NA
ATOM     13  N   UNL     1      34.529   8.917  -1.702  1.00  0.00    -0.252 NA
ATOM     14  C   UNL     1      33.864  11.145  -2.367  1.00  0.00     0.097 A
ATOM     15  C   UNL     1      34.700  10.257  -1.647  1.00  0.00     0.089 A
ATOM     16  C   UNL     1      35.722  10.779  -0.868  1.00  0.00     0.030 A
ATOM     17  C   UNL     1      35.115  13.028  -1.480  1.00  0.00     0.011 A
ATOM     18  C   UNL     1      35.939  12.154  -0.779  1.00  0.00     0.003 A
BRANCH  10  19
ATOM     19  C   UNL     1      31.607   8.902  -4.060  1.00  0.00     0.020 A
ATOM     20  C   UNL     1      29.239   7.987  -5.177  1.00  0.00     0.128 A
ATOM     21  C   UNL     1      29.467   9.358  -5.067  1.00  0.00     0.047 A
ATOM     22  N   UNL     1      30.212   7.097  -4.891  1.00  0.00    -0.239 NA
ATOM     23  C   UNL     1      30.654   9.819  -4.499  1.00  0.00     0.016 A
ATOM     24  C   UNL     1      31.349   7.563  -4.322  1.00  0.00     0.124 A
BRANCH  20  25
ATOM     25  N   UNL     1      27.963   7.513  -5.441  1.00  0.00    -0.351 N
ATOM     26  N   UNL     1      25.366   6.336  -5.693  1.00  0.00    -0.303 NA
ATOM     27  C   UNL     1      25.549   7.570  -4.885  1.00  0.00     0.105 C
ATOM     28  C   UNL     1      26.249   6.375  -6.875  1.00  0.00     0.109 C
ATOM     29  C   UNL     1      26.838   8.398  -5.140  1.00  0.00     0.134 C
ATOM     30  C   UNL     1      27.771   6.573  -6.579  1.00  0.00     0.097 C
ATOM     31  C   UNL     1      25.628   5.146  -4.882  1.00  0.00     0.105 C
ATOM     32  G   UNL     1      28.501   7.064  -7.857  1.00  0.00     0.000 C
ENDBRANCH  20  25
ENDBRANCH  10  19
ENDBRANCH   1   9
BRANCH   5  33
ATOM     33  C   UNL     1      30.442  16.141  -5.098  1.00  0.00     0.126 C
BRANCH  33  34
ATOM     34  N   UNL     1      29.013  15.794  -4.897  1.00  0.00    -0.294 NA
ATOM     35  C   UNL     1      28.781  14.423  -5.400  1.00  0.00     0.101 C
ATOM     36  C   UNL     1      28.045  16.778  -5.476  1.00  0.00     0.072 C
ATOM     37  C   UNL     1      27.462  13.842  -4.934  1.00  0.00     0.152 C
ATOM     38  C   UNL     1      26.618  16.443  -5.024  1.00  0.00     0.156 C
ATOM     39  S   UNL     1      26.132  14.825  -5.542  1.00  0.00     0.153 S
ATOM     40  O   UNL     1      24.933  14.461  -4.812  1.00  0.00    -0.229 OA
ATOM     41  O   UNL     1      26.151  14.781  -6.992  1.00  0.00    -0.229 OA
BRANCH  36  42
ATOM     42  C   UNL     1      28.374  18.244  -5.087  1.00  0.00     0.020 C
BRANCH  42  43
ATOM     43  C   UNL     1      28.511  19.240  -6.253  1.00  0.00     0.004 C
BRANCH  43  44
ATOM     44  C   UNL     1      29.938  19.805  -6.298  1.00  0.00     0.026 C
ATOM     45  G   UNL     1      30.016  21.348  -6.153  1.00  0.00     0.000 C
ENDBRANCH  43  44
ENDBRANCH  42  43
ENDBRANCH  36  42
ENDBRANCH  33  34
ENDBRANCH   5  33
TORSDOF 0
ENDMDL
