MODEL 1
REMARK VINA RESULT:     -10.7      0.000      0.000
REMARK SMILES CN1CCN2c3ccc(cc3)-c3cnc4cccc(c4n3)-c3cc(F)c(c(F)c3)CN3CCOC[C@H]3CNC[C@H]2C1
REMARK SMILES IDX 22 1 23 2 24 3 25 4 26 5 27 6 28 7 29 8 19 9 12 10 13 11
REMARK SMILES IDX 21 12 14 13 20 14 15 15 16 16 18 17 17 18 9 19 6 20 7 21
REMARK SMILES IDX 11 22 8 23 10 24 5 25 2 26 3 27 41 28 4 29 40 30 1 31 30 33
REMARK SMILES IDX 31 34 32 35 36 36 33 37 35 38 34 39 37 40 38 41 39 43
REMARK H PARENT 38 42
REMARK Flexibility Score:   82.900
ROOT
ATOM      1  C   UNL     1      33.115  13.389  -3.064  1.00  0.00    -0.010 A
ATOM      2  C   UNL     1      32.340  14.288  -2.316  1.00  0.00     0.048 A
ATOM      3  C   UNL     1      31.380  15.083  -2.938  1.00  0.00     0.131 A
ATOM      4  F   UNL     1      30.648  15.910  -2.175  1.00  0.00    -0.207 F
ATOM      5  C   UNL     1      31.155  15.021  -4.312  1.00  0.00     0.038 A
ATOM      6  C   UNL     1      31.959  14.159  -5.058  1.00  0.00     0.131 A
ATOM      7  F   UNL     1      31.814  14.089  -6.389  1.00  0.00    -0.207 F
ATOM      8  C   UNL     1      32.927  13.354  -4.453  1.00  0.00     0.048 A
ENDROOT
BRANCH   1   9
ATOM      9  C   UNL     1      34.015  12.433  -2.390  1.00  0.00     0.010 A
ATOM     10  C   UNL     1      32.333   9.307  -3.059  1.00  0.00     0.089 A
ATOM     11  C   UNL     1      33.205   8.410  -2.475  1.00  0.00     0.140 A
ATOM     12  N   UNL     1      32.581  10.633  -3.003  1.00  0.00    -0.244 NA
ATOM     13  N   UNL     1      34.333   8.801  -1.827  1.00  0.00    -0.252 NA
ATOM     14  C   UNL     1      33.707  11.060  -2.400  1.00  0.00     0.097 A
ATOM     15  C   UNL     1      34.585  10.129  -1.799  1.00  0.00     0.089 A
ATOM     16  C   UNL     1      35.737  10.600  -1.183  1.00  0.00     0.030 A
ATOM     17  C   UNL     1      35.191  12.875  -1.768  1.00  0.00     0.011 A
ATOM     18  C   UNL     1      36.047  11.962  -1.160  1.00  0.00     0.003 A
BRANCH  10  19
ATOM     19  C   UNL     1      31.141   8.957  -3.826  1.00  0.00     0.002 A
ATOM     20  C   UNL     1      29.073   8.380  -5.710  1.00  0.00     0.037 A
ATOM     21  C   UNL     1      29.246   9.665  -5.190  1.00  0.00     0.026 A
ATOM     22  C   UNL     1      29.899   7.372  -5.186  1.00  0.00     0.026 A
ATOM     23  C   UNL     1      30.270   9.956  -4.279  1.00  0.00     0.012 A
ATOM     24  C   UNL     1      30.914   7.648  -4.260  1.00  0.00     0.012 A
BRANCH  20  25
ATOM     25  N   UNL     1      28.174   8.112  -6.728  1.00  0.00    -0.365 N
ATOM     26  N   UNL     1      26.495   7.340  -9.097  1.00  0.00    -0.303 NA
ATOM     27  C   UNL     1      27.969   7.433  -9.103  1.00  0.00     0.105 C
ATOM     28  C   UNL     1      25.942   7.686  -7.770  1.00  0.00     0.110 C
ATOM     29  C   UNL     1      28.533   8.472  -8.112  1.00  0.00     0.132 C
ATOM     30  C   UNL     1      26.869   7.409  -6.537  1.00  0.00     0.110 C
ATOM     31  C   UNL     1      26.064   6.017  -9.541  1.00  0.00     0.105 C
ATOM     32  G   UNL     1      26.068   7.801  -5.240  1.00  0.00     0.000 C
ENDBRANCH  20  25
ENDBRANCH  10  19
ENDBRANCH   1   9
BRANCH   5  33
ATOM     33  C   UNL     1      30.083  15.858  -4.958  1.00  0.00     0.126 C
BRANCH  33  34
ATOM     34  N   UNL     1      29.139  15.090  -5.802  1.00  0.00    -0.290 NA
ATOM     35  C   UNL     1      28.625  15.949  -6.885  1.00  0.00     0.113 C
ATOM     36  C   UNL     1      27.978  14.556  -5.013  1.00  0.00     0.096 C
ATOM     37  C   UNL     1      27.773  17.136  -6.396  1.00  0.00     0.175 C
ATOM     38  C   UNL     1      26.755  15.518  -4.998  1.00  0.00     0.180 C
ATOM     39  O   UNL     1      27.126  16.892  -5.139  1.00  0.00    -0.378 OA
BRANCH  36  40
ATOM     40  C   UNL     1      27.573  13.155  -5.588  1.00  0.00     0.102 C
BRANCH  40  41
ATOM     41  N   UNL     1      26.325  13.034  -6.336  1.00  0.00    -0.313 NA
ATOM     42  H   UNL     1      25.693  12.339  -5.940  1.00  0.00     0.122 HD
BRANCH  41  43
ATOM     43  C   UNL     1      26.385  12.934  -7.788  1.00  0.00     0.107 C
ATOM     44  G   UNL     1      26.343  11.483  -8.399  1.00  0.00     0.000 C
ENDBRANCH  41  43
ENDBRANCH  40  41
ENDBRANCH  36  40
ENDBRANCH  33  34
ENDBRANCH   5  33
TORSDOF 0
ENDMDL
MODEL 2
REMARK VINA RESULT:     -10.7      1.670      3.145
REMARK SMILES CN1CCN2c3ccc(cc3)-c3cnc4cccc(c4n3)-c3cc(F)c(c(F)c3)CN3CCOC[C@H]3CNC[C@H]2C1
REMARK SMILES IDX 22 1 23 2 24 3 25 4 26 5 27 6 28 7 29 8 19 9 12 10 13 11
REMARK SMILES IDX 21 12 14 13 20 14 15 15 16 16 18 17 17 18 9 19 6 20 7 21
REMARK SMILES IDX 11 22 8 23 10 24 5 25 2 26 3 27 41 28 4 29 40 30 1 31 30 33
REMARK SMILES IDX 31 34 32 35 36 36 33 37 35 38 34 39 37 40 38 41 39 43
REMARK H PARENT 38 42
REMARK Flexibility Score:   82.900
ROOT
ATOM      1  C   UNL     1      33.161  13.359  -3.436  1.00  0.00    -0.010 A
ATOM      2  C   UNL     1      32.152  12.875  -4.280  1.00  0.00     0.048 A
ATOM      3  C   UNL     1      31.447  13.742  -5.112  1.00  0.00     0.131 A
ATOM      4  F   UNL     1      30.507  13.226  -5.919  1.00  0.00    -0.207 F
ATOM      5  C   UNL     1      31.709  15.111  -5.134  1.00  0.00     0.038 A
ATOM      6  C   UNL     1      32.681  15.594  -4.259  1.00  0.00     0.131 A
ATOM      7  F   UNL     1      32.946  16.908  -4.209  1.00  0.00    -0.207 F
ATOM      8  C   UNL     1      33.400  14.741  -3.419  1.00  0.00     0.048 A
ENDROOT
BRANCH   1   9
ATOM      9  C   UNL     1      34.017  12.427  -2.677  1.00  0.00     0.010 A
ATOM     10  C   UNL     1      32.235   9.319  -3.138  1.00  0.00     0.089 A
ATOM     11  C   UNL     1      33.067   8.439  -2.473  1.00  0.00     0.140 A
ATOM     12  N   UNL     1      32.530  10.636  -3.178  1.00  0.00    -0.244 NA
ATOM     13  N   UNL     1      34.198   8.840  -1.836  1.00  0.00    -0.252 NA
ATOM     14  C   UNL     1      33.660  11.069  -2.589  1.00  0.00     0.097 A
ATOM     15  C   UNL     1      34.496  10.156  -1.904  1.00  0.00     0.089 A
ATOM     16  C   UNL     1      35.654  10.633  -1.305  1.00  0.00     0.030 A
ATOM     17  C   UNL     1      35.199  12.874  -2.068  1.00  0.00     0.011 A
ATOM     18  C   UNL     1      36.012  11.981  -1.379  1.00  0.00     0.003 A
BRANCH  10  19
ATOM     19  C   UNL     1      31.043   8.952  -3.898  1.00  0.00     0.002 A
ATOM     20  C   UNL     1      28.973   8.343  -5.769  1.00  0.00     0.037 A
ATOM     21  C   UNL     1      29.138   9.634  -5.260  1.00  0.00     0.026 A
ATOM     22  C   UNL     1      29.809   7.346  -5.239  1.00  0.00     0.026 A
ATOM     23  C   UNL     1      30.163   9.941  -4.357  1.00  0.00     0.012 A
ATOM     24  C   UNL     1      30.825   7.638  -4.319  1.00  0.00     0.012 A
BRANCH  20  25
ATOM     25  N   UNL     1      28.073   8.059  -6.781  1.00  0.00    -0.365 N
ATOM     26  N   UNL     1      26.396   7.268  -9.145  1.00  0.00    -0.303 NA
ATOM     27  C   UNL     1      27.864   7.422  -9.168  1.00  0.00     0.105 C
ATOM     28  C   UNL     1      25.846   7.562  -7.804  1.00  0.00     0.110 C
ATOM     29  C   UNL     1      28.398   8.463  -8.161  1.00  0.00     0.132 C
ATOM     30  C   UNL     1      26.800   7.299  -6.589  1.00  0.00     0.110 C
ATOM     31  C   UNL     1      26.014   5.938  -9.612  1.00  0.00     0.105 C
ATOM     32  G   UNL     1      26.001   7.630  -5.274  1.00  0.00     0.000 C
ENDBRANCH  20  25
ENDBRANCH  10  19
ENDBRANCH   1   9
BRANCH   5  33
ATOM     33  C   UNL     1      30.964  16.025  -6.071  1.00  0.00     0.126 C
BRANCH  33  34
ATOM     34  N   UNL     1      30.187  17.087  -5.391  1.00  0.00    -0.290 NA
ATOM     35  C   UNL     1      29.120  16.479  -4.574  1.00  0.00     0.113 C
ATOM     36  C   UNL     1      29.565  18.045  -6.366  1.00  0.00     0.096 C
ATOM     37  C   UNL     1      28.051  15.728  -5.391  1.00  0.00     0.175 C
ATOM     38  C   UNL     1      28.123  17.640  -6.788  1.00  0.00     0.180 C
ATOM     39  O   UNL     1      27.903  16.228  -6.728  1.00  0.00    -0.378 OA
BRANCH  36  40
ATOM     40  C   UNL     1      29.575  19.483  -5.741  1.00  0.00     0.102 C
BRANCH  40  41
ATOM     41  N   UNL     1      30.101  19.661  -4.390  1.00  0.00    -0.313 NA
ATOM     42  H   UNL     1      29.379  19.906  -3.714  1.00  0.00     0.122 HD
BRANCH  41  43
ATOM     43  C   UNL     1      31.300  20.467  -4.205  1.00  0.00     0.107 C
ATOM     44  G   UNL     1      32.516  20.152  -5.154  1.00  0.00     0.000 C
ENDBRANCH  41  43
ENDBRANCH  40  41
ENDBRANCH  36  40
ENDBRANCH  33  34
ENDBRANCH   5  33
TORSDOF 0
ENDMDL
MODEL 3
REMARK VINA RESULT:     -10.6      1.915      3.317
REMARK SMILES CN1CCN2c3ccc(cc3)-c3cnc4cccc(c4n3)-c3cc(F)c(c(F)c3)CN3CCOC[C@H]3CNC[C@H]2C1
REMARK SMILES IDX 22 1 23 2 24 3 25 4 26 5 27 6 28 7 29 8 19 9 12 10 13 11
REMARK SMILES IDX 21 12 14 13 20 14 15 15 16 16 18 17 17 18 9 19 6 20 7 21
REMARK SMILES IDX 11 22 8 23 10 24 5 25 2 26 3 27 41 28 4 29 40 30 1 31 30 33
REMARK SMILES IDX 31 34 32 35 36 36 33 37 35 38 34 39 37 40 38 41 39 43
REMARK H PARENT 38 42
REMARK Flexibility Score:   82.900
ROOT
ATOM      1  C   UNL     1      32.902  13.422  -2.814  1.00  0.00    -0.010 A
ATOM      2  C   UNL     1      32.330  14.405  -1.995  1.00  0.00     0.048 A
ATOM      3  C   UNL     1      31.277  15.190  -2.460  1.00  0.00     0.131 A
ATOM      4  F   UNL     1      30.748  16.102  -1.629  1.00  0.00    -0.207 F
ATOM      5  C   UNL     1      30.759  15.035  -3.745  1.00  0.00     0.038 A
ATOM      6  C   UNL     1      31.362  14.088  -4.571  1.00  0.00     0.131 A
ATOM      7  F   UNL     1      30.931  13.924  -5.831  1.00  0.00    -0.207 F
ATOM      8  C   UNL     1      32.418  13.290  -4.124  1.00  0.00     0.048 A
ENDROOT
BRANCH   1   9
ATOM      9  C   UNL     1      33.904  12.483  -2.273  1.00  0.00     0.010 A
ATOM     10  C   UNL     1      32.387   9.307  -3.087  1.00  0.00     0.089 A
ATOM     11  C   UNL     1      33.352   8.431  -2.628  1.00  0.00     0.140 A
ATOM     12  N   UNL     1      32.553  10.639  -2.941  1.00  0.00    -0.244 NA
ATOM     13  N   UNL     1      34.491   8.850  -2.018  1.00  0.00    -0.252 NA
ATOM     14  C   UNL     1      33.685  11.096  -2.373  1.00  0.00     0.097 A
ATOM     15  C   UNL     1      34.658  10.186  -1.900  1.00  0.00     0.089 A
ATOM     16  C   UNL     1      35.814  10.688  -1.318  1.00  0.00     0.030 A
ATOM     17  C   UNL     1      35.086  12.957  -1.687  1.00  0.00     0.011 A
ATOM     18  C   UNL     1      36.036  12.062  -1.205  1.00  0.00     0.003 A
BRANCH  10  19
ATOM     19  C   UNL     1      31.174   8.933  -3.808  1.00  0.00     0.002 A
ATOM     20  C   UNL     1      29.053   8.298  -5.613  1.00  0.00     0.037 A
ATOM     21  C   UNL     1      29.244   9.599  -5.142  1.00  0.00     0.026 A
ATOM     22  C   UNL     1      29.893   7.306  -5.078  1.00  0.00     0.026 A
ATOM     23  C   UNL     1      30.293   9.919  -4.271  1.00  0.00     0.012 A
ATOM     24  C   UNL     1      30.933   7.610  -4.190  1.00  0.00     0.012 A
BRANCH  20  25
ATOM     25  N   UNL     1      28.127   7.997  -6.596  1.00  0.00    -0.365 N
ATOM     26  N   UNL     1      26.381   7.147  -8.889  1.00  0.00    -0.303 NA
ATOM     27  C   UNL     1      27.854   7.232  -8.938  1.00  0.00     0.105 C
ATOM     28  C   UNL     1      25.865   7.545  -7.561  1.00  0.00     0.110 C
ATOM     29  C   UNL     1      28.450   8.304  -8.001  1.00  0.00     0.132 C
ATOM     30  C   UNL     1      26.823   7.309  -6.344  1.00  0.00     0.110 C
ATOM     31  C   UNL     1      25.932   5.812  -9.271  1.00  0.00     0.105 C
ATOM     32  G   UNL     1      26.059   7.753  -5.041  1.00  0.00     0.000 C
ENDBRANCH  20  25
ENDBRANCH  10  19
ENDBRANCH   1   9
BRANCH   5  33
ATOM     33  C   UNL     1      29.594  15.865  -4.212  1.00  0.00     0.126 C
BRANCH  33  34
ATOM     34  N   UNL     1      29.930  17.281  -4.490  1.00  0.00    -0.290 NA
ATOM     35  C   UNL     1      28.904  17.875  -5.367  1.00  0.00     0.113 C
ATOM     36  C   UNL     1      31.273  17.427  -5.146  1.00  0.00     0.096 C
ATOM     37  C   UNL     1      28.837  17.248  -6.773  1.00  0.00     0.175 C
ATOM     38  C   UNL     1      31.198  17.425  -6.699  1.00  0.00     0.180 C
ATOM     39  O   UNL     1      30.084  16.682  -7.202  1.00  0.00    -0.378 OA
BRANCH  36  40
ATOM     40  C   UNL     1      31.952  18.741  -4.625  1.00  0.00     0.102 C
BRANCH  40  41
ATOM     41  N   UNL     1      33.162  19.219  -5.289  1.00  0.00    -0.313 NA
ATOM     42  H   UNL     1      33.995  18.702  -5.012  1.00  0.00     0.122 HD
BRANCH  41  43
ATOM     43  C   UNL     1      33.415  20.652  -5.337  1.00  0.00     0.107 C
ATOM     44  G   UNL     1      32.248  21.558  -5.880  1.00  0.00     0.000 C
ENDBRANCH  41  43
ENDBRANCH  40  41
ENDBRANCH  36  40
ENDBRANCH  33  34
ENDBRANCH   5  33
TORSDOF 0
ENDMDL
MODEL 4
REMARK VINA RESULT:     -10.6      0.874      1.610
REMARK SMILES CN1CCN2c3ccc(cc3)-c3cnc4cccc(c4n3)-c3cc(F)c(c(F)c3)CN3CCOC[C@H]3CNC[C@H]2C1
REMARK SMILES IDX 22 1 23 2 24 3 25 4 26 5 27 6 28 7 29 8 19 9 12 10 13 11
REMARK SMILES IDX 21 12 14 13 20 14 15 15 16 16 18 17 17 18 9 19 6 20 7 21
REMARK SMILES IDX 11 22 8 23 10 24 5 25 2 26 3 27 41 28 4 29 40 30 1 31 30 33
REMARK SMILES IDX 31 34 32 35 36 36 33 37 35 38 34 39 37 40 38 41 39 43
REMARK H PARENT 38 42
REMARK Flexibility Score:   82.900
ROOT
ATOM      1  C   UNL     1      33.146  13.370  -3.051  1.00  0.00    -0.010 A
ATOM      2  C   UNL     1      33.062  13.419  -4.450  1.00  0.00     0.048 A
ATOM      3  C   UNL     1      32.354  14.439  -5.082  1.00  0.00     0.131 A
ATOM      4  F   UNL     1      32.324  14.456  -6.423  1.00  0.00    -0.207 F
ATOM      5  C   UNL     1      31.703  15.437  -4.358  1.00  0.00     0.038 A
ATOM      6  C   UNL     1      31.751  15.357  -2.966  1.00  0.00     0.131 A
ATOM      7  F   UNL     1      31.108  16.268  -2.220  1.00  0.00    -0.207 F
ATOM      8  C   UNL     1      32.456  14.344  -2.314  1.00  0.00     0.048 A
ENDROOT
BRANCH   1   9
ATOM      9  C   UNL     1      34.026  12.390  -2.385  1.00  0.00     0.010 A
ATOM     10  C   UNL     1      32.294   9.303  -3.103  1.00  0.00     0.089 A
ATOM     11  C   UNL     1      33.147   8.383  -2.526  1.00  0.00     0.140 A
ATOM     12  N   UNL     1      32.565  10.624  -3.029  1.00  0.00    -0.244 NA
ATOM     13  N   UNL     1      34.278   8.747  -1.867  1.00  0.00    -0.252 NA
ATOM     14  C   UNL     1      33.694  11.023  -2.414  1.00  0.00     0.097 A
ATOM     15  C   UNL     1      34.553  10.069  -1.821  1.00  0.00     0.089 A
ATOM     16  C   UNL     1      35.709  10.512  -1.192  1.00  0.00     0.030 A
ATOM     17  C   UNL     1      35.206  12.803  -1.750  1.00  0.00     0.011 A
ATOM     18  C   UNL     1      36.042  11.868  -1.150  1.00  0.00     0.003 A
BRANCH  10  19
ATOM     19  C   UNL     1      31.100   8.983  -3.881  1.00  0.00     0.002 A
ATOM     20  C   UNL     1      29.040   8.445  -5.785  1.00  0.00     0.037 A
ATOM     21  C   UNL     1      29.262   9.735  -5.297  1.00  0.00     0.026 A
ATOM     22  C   UNL     1      29.813   7.416  -5.219  1.00  0.00     0.026 A
ATOM     23  C   UNL     1      30.282  10.006  -4.377  1.00  0.00     0.012 A
ATOM     24  C   UNL     1      30.823   7.674  -4.283  1.00  0.00     0.012 A
BRANCH  20  25
ATOM     25  N   UNL     1      28.148   8.187  -6.811  1.00  0.00    -0.365 N
ATOM     26  N   UNL     1      26.486   7.450  -9.203  1.00  0.00    -0.303 NA
ATOM     27  C   UNL     1      27.957   7.579  -9.207  1.00  0.00     0.105 C
ATOM     28  C   UNL     1      25.925   7.741  -7.866  1.00  0.00     0.110 C
ATOM     29  C   UNL     1      28.497   8.600  -8.183  1.00  0.00     0.132 C
ATOM     30  C   UNL     1      26.859   7.448  -6.642  1.00  0.00     0.110 C
ATOM     31  C   UNL     1      26.086   6.133  -9.689  1.00  0.00     0.105 C
ATOM     32  G   UNL     1      26.050   7.779  -5.333  1.00  0.00     0.000 C
ENDBRANCH  20  25
ENDBRANCH  10  19
ENDBRANCH   1   9
BRANCH   5  33
ATOM     33  C   UNL     1      30.979  16.553  -5.062  1.00  0.00     0.126 C
BRANCH  33  34
ATOM     34  N   UNL     1      29.728  16.134  -5.736  1.00  0.00    -0.290 NA
ATOM     35  C   UNL     1      29.378  17.106  -6.788  1.00  0.00     0.113 C
ATOM     36  C   UNL     1      28.578  16.022  -4.776  1.00  0.00     0.096 C
ATOM     37  C   UNL     1      29.038  18.513  -6.258  1.00  0.00     0.175 C
ATOM     38  C   UNL     1      27.751  17.335  -4.656  1.00  0.00     0.180 C
ATOM     39  O   UNL     1      28.528  18.507  -4.917  1.00  0.00    -0.378 OA
BRANCH  36  40
ATOM     40  C   UNL     1      27.661  14.829  -5.219  1.00  0.00     0.102 C
BRANCH  40  41
ATOM     41  N   UNL     1      28.151  13.904  -6.237  1.00  0.00    -0.313 NA
ATOM     42  H   UNL     1      29.167  13.905  -6.315  1.00  0.00     0.122 HD
BRANCH  41  43
ATOM     43  C   UNL     1      27.515  13.901  -7.547  1.00  0.00     0.107 C
ATOM     44  G   UNL     1      26.385  14.971  -7.785  1.00  0.00     0.000 C
ENDBRANCH  41  43
ENDBRANCH  40  41
ENDBRANCH  36  40
ENDBRANCH  33  34
ENDBRANCH   5  33
TORSDOF 0
ENDMDL
MODEL 5
REMARK VINA RESULT:     -10.5      1.881      3.205
REMARK SMILES CN1CCN2c3ccc(cc3)-c3cnc4cccc(c4n3)-c3cc(F)c(c(F)c3)CN3CCOC[C@H]3CNC[C@H]2C1
REMARK SMILES IDX 22 1 23 2 24 3 25 4 26 5 27 6 28 7 29 8 19 9 12 10 13 11
REMARK SMILES IDX 21 12 14 13 20 14 15 15 16 16 18 17 17 18 9 19 6 20 7 21
REMARK SMILES IDX 11 22 8 23 10 24 5 25 2 26 3 27 41 28 4 29 40 30 1 31 30 33
REMARK SMILES IDX 31 34 32 35 36 36 33 37 35 38 34 39 37 40 38 41 39 43
REMARK H PARENT 38 42
REMARK Flexibility Score:   82.900
ROOT
ATOM      1  C   UNL     1      33.298  13.269  -3.687  1.00  0.00    -0.010 A
ATOM      2  C   UNL     1      33.544  14.649  -3.647  1.00  0.00     0.048 A
ATOM      3  C   UNL     1      32.734  15.534  -4.354  1.00  0.00     0.131 A
ATOM      4  F   UNL     1      32.996  16.847  -4.264  1.00  0.00    -0.207 F
ATOM      5  C   UNL     1      31.661  15.089  -5.126  1.00  0.00     0.038 A
ATOM      6  C   UNL     1      31.450  13.712  -5.200  1.00  0.00     0.131 A
ATOM      7  F   UNL     1      30.457  13.226  -5.960  1.00  0.00    -0.207 F
ATOM      8  C   UNL     1      32.250  12.809  -4.497  1.00  0.00     0.048 A
ENDROOT
BRANCH   1   9
ATOM      9  C   UNL     1      34.050  12.346  -2.814  1.00  0.00     0.010 A
ATOM     10  C   UNL     1      32.104   9.323  -3.163  1.00  0.00     0.089 A
ATOM     11  C   UNL     1      32.839   8.447  -2.389  1.00  0.00     0.140 A
ATOM     12  N   UNL     1      32.482  10.614  -3.277  1.00  0.00    -0.244 NA
ATOM     13  N   UNL     1      33.956   8.826  -1.715  1.00  0.00    -0.252 NA
ATOM     14  C   UNL     1      33.603  11.021  -2.653  1.00  0.00     0.097 A
ATOM     15  C   UNL     1      34.340  10.114  -1.856  1.00  0.00     0.089 A
ATOM     16  C   UNL     1      35.490  10.564  -1.223  1.00  0.00     0.030 A
ATOM     17  C   UNL     1      35.221  12.766  -2.167  1.00  0.00     0.011 A
ATOM     18  C   UNL     1      35.936  11.880  -1.369  1.00  0.00     0.003 A
BRANCH  10  19
ATOM     19  C   UNL     1      30.936   8.972  -3.966  1.00  0.00     0.002 A
ATOM     20  C   UNL     1      28.926   8.396  -5.912  1.00  0.00     0.037 A
ATOM     21  C   UNL     1      29.082   9.681  -5.385  1.00  0.00     0.026 A
ATOM     22  C   UNL     1      29.737   7.387  -5.365  1.00  0.00     0.026 A
ATOM     23  C   UNL     1      30.078   9.971  -4.445  1.00  0.00     0.012 A
ATOM     24  C   UNL     1      30.723   7.663  -4.408  1.00  0.00     0.012 A
BRANCH  20  25
ATOM     25  N   UNL     1      28.058   8.128  -6.957  1.00  0.00    -0.365 N
ATOM     26  N   UNL     1      26.460   7.382  -9.390  1.00  0.00    -0.303 NA
ATOM     27  C   UNL     1      27.925   7.565  -9.367  1.00  0.00     0.105 C
ATOM     28  C   UNL     1      25.870   7.623  -8.055  1.00  0.00     0.110 C
ATOM     29  C   UNL     1      28.412   8.582  -8.315  1.00  0.00     0.132 C
ATOM     30  C   UNL     1      26.796   7.339  -6.824  1.00  0.00     0.110 C
ATOM     31  C   UNL     1      26.117   6.061  -9.908  1.00  0.00     0.105 C
ATOM     32  G   UNL     1      25.956   7.612  -5.521  1.00  0.00     0.000 C
ENDBRANCH  20  25
ENDBRANCH  10  19
ENDBRANCH   1   9
BRANCH   5  33
ATOM     33  C   UNL     1      30.773  16.066  -5.849  1.00  0.00     0.126 C
BRANCH  33  34
ATOM     34  N   UNL     1      30.393  17.250  -5.045  1.00  0.00    -0.290 NA
ATOM     35  C   UNL     1      29.170  16.958  -4.274  1.00  0.00     0.113 C
ATOM     36  C   UNL     1      30.150  18.461  -5.899  1.00  0.00     0.096 C
ATOM     37  C   UNL     1      27.922  16.708  -5.142  1.00  0.00     0.175 C
ATOM     38  C   UNL     1      28.664  18.618  -6.331  1.00  0.00     0.180 C
ATOM     39  O   UNL     1      27.975  17.367  -6.415  1.00  0.00    -0.378 OA
BRANCH  36  40
ATOM     40  C   UNL     1      30.639  19.735  -5.126  1.00  0.00     0.102 C
BRANCH  40  41
ATOM     41  N   UNL     1      31.978  19.734  -4.542  1.00  0.00    -0.313 NA
ATOM     42  H   UNL     1      31.986  20.055  -3.574  1.00  0.00     0.122 HD
BRANCH  41  43
ATOM     43  C   UNL     1      33.076  20.310  -5.305  1.00  0.00     0.107 C
ATOM     44  G   UNL     1      33.734  19.390  -6.400  1.00  0.00     0.000 C
ENDBRANCH  41  43
ENDBRANCH  40  41
ENDBRANCH  36  40
ENDBRANCH  33  34
ENDBRANCH   5  33
TORSDOF 0
ENDMDL
MODEL 6
REMARK VINA RESULT:     -10.4      1.066      1.159
REMARK SMILES CN1CCN2c3ccc(cc3)-c3cnc4cccc(c4n3)-c3cc(F)c(c(F)c3)CN3CCOC[C@H]3CNC[C@H]2C1
REMARK SMILES IDX 22 1 23 2 24 3 25 4 26 5 27 6 28 7 29 8 19 9 12 10 13 11
REMARK SMILES IDX 21 12 14 13 20 14 15 15 16 16 18 17 17 18 9 19 6 20 7 21
REMARK SMILES IDX 11 22 8 23 10 24 5 25 2 26 3 27 41 28 4 29 40 30 1 31 30 33
REMARK SMILES IDX 31 34 32 35 36 36 33 37 35 38 34 39 37 40 38 41 39 43
REMARK H PARENT 38 42
REMARK Flexibility Score:   82.900
ROOT
ATOM      1  C   UNL     1      33.395  13.273  -3.575  1.00  0.00    -0.010 A
ATOM      2  C   UNL     1      33.520  14.659  -3.402  1.00  0.00     0.048 A
ATOM      3  C   UNL     1      32.702  15.539  -4.107  1.00  0.00     0.131 A
ATOM      4  F   UNL     1      32.845  16.855  -3.888  1.00  0.00    -0.207 F
ATOM      5  C   UNL     1      31.739  15.083  -5.007  1.00  0.00     0.038 A
ATOM      6  C   UNL     1      31.650  13.706  -5.210  1.00  0.00     0.131 A
ATOM      7  F   UNL     1      30.770  13.214  -6.095  1.00  0.00    -0.207 F
ATOM      8  C   UNL     1      32.461  12.808  -4.512  1.00  0.00     0.048 A
ENDROOT
BRANCH   1   9
ATOM      9  C   UNL     1      34.144  12.337  -2.714  1.00  0.00     0.010 A
ATOM     10  C   UNL     1      32.186   9.325  -3.098  1.00  0.00     0.089 A
ATOM     11  C   UNL     1      32.920   8.438  -2.335  1.00  0.00     0.140 A
ATOM     12  N   UNL     1      32.570  10.617  -3.197  1.00  0.00    -0.244 NA
ATOM     13  N   UNL     1      34.039   8.805  -1.658  1.00  0.00    -0.252 NA
ATOM     14  C   UNL     1      33.693  11.012  -2.569  1.00  0.00     0.097 A
ATOM     15  C   UNL     1      34.427  10.093  -1.784  1.00  0.00     0.089 A
ATOM     16  C   UNL     1      35.580  10.532  -1.147  1.00  0.00     0.030 A
ATOM     17  C   UNL     1      35.317  12.746  -2.065  1.00  0.00     0.011 A
ATOM     18  C   UNL     1      36.030  11.847  -1.278  1.00  0.00     0.003 A
BRANCH  10  19
ATOM     19  C   UNL     1      31.016   8.989  -3.903  1.00  0.00     0.002 A
ATOM     20  C   UNL     1      29.005   8.431  -5.854  1.00  0.00     0.037 A
ATOM     21  C   UNL     1      29.184   9.718  -5.340  1.00  0.00     0.026 A
ATOM     22  C   UNL     1      29.795   7.413  -5.292  1.00  0.00     0.026 A
ATOM     23  C   UNL     1      30.180   9.999  -4.397  1.00  0.00     0.012 A
ATOM     24  C   UNL     1      30.781   7.680  -4.332  1.00  0.00     0.012 A
BRANCH  20  25
ATOM     25  N   UNL     1      28.139   8.168  -6.901  1.00  0.00    -0.365 N
ATOM     26  N   UNL     1      26.544   7.445  -9.342  1.00  0.00    -0.303 NA
ATOM     27  C   UNL     1      28.005   7.659  -9.323  1.00  0.00     0.105 C
ATOM     28  C   UNL     1      25.956   7.641  -7.999  1.00  0.00     0.110 C
ATOM     29  C   UNL     1      28.475   8.662  -8.248  1.00  0.00     0.132 C
ATOM     30  C   UNL     1      26.895   7.348  -6.780  1.00  0.00     0.110 C
ATOM     31  C   UNL     1      26.227   6.129  -9.890  1.00  0.00     0.105 C
ATOM     32  G   UNL     1      26.056   7.572  -5.466  1.00  0.00     0.000 C
ENDBRANCH  20  25
ENDBRANCH  10  19
ENDBRANCH   1   9
BRANCH   5  33
ATOM     33  C   UNL     1      30.837  16.049  -5.727  1.00  0.00     0.126 C
BRANCH  33  34
ATOM     34  N   UNL     1      29.468  15.537  -5.967  1.00  0.00    -0.290 NA
ATOM     35  C   UNL     1      28.837  16.294  -7.063  1.00  0.00     0.113 C
ATOM     36  C   UNL     1      28.602  15.639  -4.744  1.00  0.00     0.096 C
ATOM     37  C   UNL     1      28.604  17.784  -6.747  1.00  0.00     0.175 C
ATOM     38  C   UNL     1      27.797  16.969  -4.675  1.00  0.00     0.180 C
ATOM     39  O   UNL     1      28.451  18.050  -5.346  1.00  0.00    -0.378 OA
BRANCH  36  40
ATOM     40  C   UNL     1      27.636  14.405  -4.701  1.00  0.00     0.102 C
BRANCH  40  41
ATOM     41  N   UNL     1      26.225  14.624  -4.391  1.00  0.00    -0.313 NA
ATOM     42  H   UNL     1      25.991  14.387  -3.428  1.00  0.00     0.122 HD
BRANCH  41  43
ATOM     43  C   UNL     1      25.219  14.133  -5.322  1.00  0.00     0.107 C
ATOM     44  G   UNL     1      25.666  13.963  -6.821  1.00  0.00     0.000 C
ENDBRANCH  41  43
ENDBRANCH  40  41
ENDBRANCH  36  40
ENDBRANCH  33  34
ENDBRANCH   5  33
TORSDOF 0
ENDMDL
MODEL 7
REMARK VINA RESULT:     -10.2      1.932      3.478
REMARK SMILES CN1CCN2c3ccc(cc3)-c3cnc4cccc(c4n3)-c3cc(F)c(c(F)c3)CN3CCOC[C@H]3CNC[C@H]2C1
REMARK SMILES IDX 22 1 23 2 24 3 25 4 26 5 27 6 28 7 29 8 19 9 12 10 13 11
REMARK SMILES IDX 21 12 14 13 20 14 15 15 16 16 18 17 17 18 9 19 6 20 7 21
REMARK SMILES IDX 11 22 8 23 10 24 5 25 2 26 3 27 41 28 4 29 40 30 1 31 30 33
REMARK SMILES IDX 31 34 32 35 36 36 33 37 35 38 34 39 37 40 38 41 39 43
REMARK H PARENT 38 42
REMARK Flexibility Score:   82.900
ROOT
ATOM      1  C   UNL     1      32.846  13.361  -3.137  1.00  0.00    -0.010 A
ATOM      2  C   UNL     1      32.279  14.380  -2.358  1.00  0.00     0.048 A
ATOM      3  C   UNL     1      31.232  15.153  -2.856  1.00  0.00     0.131 A
ATOM      4  F   UNL     1      30.707  16.100  -2.063  1.00  0.00    -0.207 F
ATOM      5  C   UNL     1      30.714  14.949  -4.134  1.00  0.00     0.038 A
ATOM      6  C   UNL     1      31.312  13.965  -4.921  1.00  0.00     0.131 A
ATOM      7  F   UNL     1      30.880  13.754  -6.174  1.00  0.00    -0.207 F
ATOM      8  C   UNL     1      32.362  13.180  -4.440  1.00  0.00     0.048 A
ENDROOT
BRANCH   1   9
ATOM      9  C   UNL     1      33.841  12.438  -2.557  1.00  0.00     0.010 A
ATOM     10  C   UNL     1      32.250   9.248  -3.140  1.00  0.00     0.089 A
ATOM     11  C   UNL     1      33.207   8.383  -2.645  1.00  0.00     0.140 A
ATOM     12  N   UNL     1      32.443  10.583  -3.081  1.00  0.00    -0.244 NA
ATOM     13  N   UNL     1      34.366   8.817  -2.085  1.00  0.00    -0.252 NA
ATOM     14  C   UNL     1      33.594  11.052  -2.565  1.00  0.00     0.097 A
ATOM     15  C   UNL     1      34.560  10.154  -2.055  1.00  0.00     0.089 A
ATOM     16  C   UNL     1      35.736  10.669  -1.528  1.00  0.00     0.030 A
ATOM     17  C   UNL     1      35.044  12.924  -2.025  1.00  0.00     0.011 A
ATOM     18  C   UNL     1      35.986  12.043  -1.506  1.00  0.00     0.003 A
BRANCH  10  19
ATOM     19  C   UNL     1      31.015   8.854  -3.812  1.00  0.00     0.002 A
ATOM     20  C   UNL     1      28.832   8.191  -5.531  1.00  0.00     0.037 A
ATOM     21  C   UNL     1      29.009   9.490  -5.046  1.00  0.00     0.026 A
ATOM     22  C   UNL     1      29.720   7.214  -5.052  1.00  0.00     0.026 A
ATOM     23  C   UNL     1      30.088   9.823  -4.218  1.00  0.00     0.012 A
ATOM     24  C   UNL     1      30.792   7.532  -4.206  1.00  0.00     0.012 A
BRANCH  20  25
ATOM     25  N   UNL     1      27.870   7.882  -6.476  1.00  0.00    -0.365 N
ATOM     26  N   UNL     1      25.543   7.390  -8.313  1.00  0.00    -0.303 NA
ATOM     27  C   UNL     1      25.434   7.632  -6.861  1.00  0.00     0.105 C
ATOM     28  C   UNL     1      26.955   7.411  -8.755  1.00  0.00     0.110 C
ATOM     29  C   UNL     1      26.659   7.155  -6.054  1.00  0.00     0.132 C
ATOM     30  C   UNL     1      27.934   8.297  -7.912  1.00  0.00     0.110 C
ATOM     31  C   UNL     1      24.724   8.345  -9.054  1.00  0.00     0.105 C
ATOM     32  G   UNL     1      29.355   8.211  -8.583  1.00  0.00     0.000 C
ENDBRANCH  20  25
ENDBRANCH  10  19
ENDBRANCH   1   9
BRANCH   5  33
ATOM     33  C   UNL     1      29.554  15.767  -4.636  1.00  0.00     0.126 C
BRANCH  33  34
ATOM     34  N   UNL     1      29.641  17.208  -4.307  1.00  0.00    -0.290 NA
ATOM     35  C   UNL     1      28.298  17.815  -4.364  1.00  0.00     0.113 C
ATOM     36  C   UNL     1      30.549  17.951  -5.244  1.00  0.00     0.096 C
ATOM     37  C   UNL     1      27.666  17.813  -5.770  1.00  0.00     0.175 C
ATOM     38  C   UNL     1      29.804  18.555  -6.468  1.00  0.00     0.180 C
ATOM     39  O   UNL     1      28.634  17.814  -6.828  1.00  0.00    -0.378 OA
BRANCH  36  40
ATOM     40  C   UNL     1      31.299  19.071  -4.444  1.00  0.00     0.102 C
BRANCH  40  41
ATOM     41  N   UNL     1      32.678  19.392  -4.804  1.00  0.00    -0.313 NA
ATOM     42  H   UNL     1      33.269  19.562  -3.991  1.00  0.00     0.122 HD
BRANCH  41  43
ATOM     43  C   UNL     1      32.918  20.373  -5.853  1.00  0.00     0.107 C
ATOM     44  G   UNL     1      32.926  21.886  -5.417  1.00  0.00     0.000 C
ENDBRANCH  41  43
ENDBRANCH  40  41
ENDBRANCH  36  40
ENDBRANCH  33  34
ENDBRANCH   5  33
TORSDOF 0
ENDMDL
MODEL 8
REMARK VINA RESULT:     -10.2      1.262      2.045
REMARK SMILES CN1CCN2c3ccc(cc3)-c3cnc4cccc(c4n3)-c3cc(F)c(c(F)c3)CN3CCOC[C@H]3CNC[C@H]2C1
REMARK SMILES IDX 22 1 23 2 24 3 25 4 26 5 27 6 28 7 29 8 19 9 12 10 13 11
REMARK SMILES IDX 21 12 14 13 20 14 15 15 16 16 18 17 17 18 9 19 6 20 7 21
REMARK SMILES IDX 11 22 8 23 10 24 5 25 2 26 3 27 41 28 4 29 40 30 1 31 30 33
REMARK SMILES IDX 31 34 32 35 36 36 33 37 35 38 34 39 37 40 38 41 39 43
REMARK H PARENT 38 42
REMARK Flexibility Score:   82.900
ROOT
ATOM      1  C   UNL     1      32.967  13.549  -3.018  1.00  0.00    -0.010 A
ATOM      2  C   UNL     1      33.020  13.926  -4.367  1.00  0.00     0.048 A
ATOM      3  C   UNL     1      32.330  15.050  -4.817  1.00  0.00     0.131 A
ATOM      4  F   UNL     1      32.431  15.383  -6.113  1.00  0.00    -0.207 F
ATOM      5  C   UNL     1      31.564  15.834  -3.954  1.00  0.00     0.038 A
ATOM      6  C   UNL     1      31.477  15.428  -2.623  1.00  0.00     0.131 A
ATOM      7  F   UNL     1      30.722  16.121  -1.758  1.00  0.00    -0.207 F
ATOM      8  C   UNL     1      32.163  14.305  -2.153  1.00  0.00     0.048 A
ENDROOT
BRANCH   1   9
ATOM      9  C   UNL     1      33.823  12.460  -2.508  1.00  0.00     0.010 A
ATOM     10  C   UNL     1      31.852   9.563  -3.386  1.00  0.00     0.089 A
ATOM     11  C   UNL     1      32.680   8.544  -2.957  1.00  0.00     0.140 A
ATOM     12  N   UNL     1      32.212  10.852  -3.209  1.00  0.00    -0.244 NA
ATOM     13  N   UNL     1      33.871   8.775  -2.348  1.00  0.00    -0.252 NA
ATOM     14  C   UNL     1      33.402  11.124  -2.640  1.00  0.00     0.097 A
ATOM     15  C   UNL     1      34.233  10.069  -2.199  1.00  0.00     0.089 A
ATOM     16  C   UNL     1      35.453  10.381  -1.614  1.00  0.00     0.030 A
ATOM     17  C   UNL     1      35.065  12.740  -1.921  1.00  0.00     0.011 A
ATOM     18  C   UNL     1      35.875  11.704  -1.470  1.00  0.00     0.003 A
BRANCH  10  19
ATOM     19  C   UNL     1      30.593   9.390  -4.106  1.00  0.00     0.002 A
ATOM     20  C   UNL     1      28.357   9.261  -5.878  1.00  0.00     0.037 A
ATOM     21  C   UNL     1      28.578  10.375  -5.064  1.00  0.00     0.026 A
ATOM     22  C   UNL     1      29.230   8.173  -5.707  1.00  0.00     0.026 A
ATOM     23  C   UNL     1      29.683  10.450  -4.207  1.00  0.00     0.012 A
ATOM     24  C   UNL     1      30.328   8.229  -4.837  1.00  0.00     0.012 A
BRANCH  20  25
ATOM     25  N   UNL     1      27.367   9.239  -6.845  1.00  0.00    -0.365 N
ATOM     26  N   UNL     1      25.484   9.255  -9.186  1.00  0.00    -0.303 NA
ATOM     27  C   UNL     1      26.785   9.953  -9.146  1.00  0.00     0.105 C
ATOM     28  C   UNL     1      25.216   8.548  -7.915  1.00  0.00     0.110 C
ATOM     29  C   UNL     1      27.208  10.405  -7.733  1.00  0.00     0.132 C
ATOM     30  C   UNL     1      26.470   8.072  -7.107  1.00  0.00     0.110 C
ATOM     31  C   UNL     1      25.421   8.357 -10.335  1.00  0.00     0.105 C
ATOM     32  G   UNL     1      25.954   7.309  -5.830  1.00  0.00     0.000 C
ENDBRANCH  20  25
ENDBRANCH  10  19
ENDBRANCH   1   9
BRANCH   5  33
ATOM     33  C   UNL     1      30.860  17.067  -4.452  1.00  0.00     0.126 C
BRANCH  33  34
ATOM     34  N   UNL     1      30.182  16.894  -5.758  1.00  0.00    -0.290 NA
ATOM     35  C   UNL     1      30.126  18.186  -6.467  1.00  0.00     0.113 C
ATOM     36  C   UNL     1      28.785  16.363  -5.604  1.00  0.00     0.096 C
ATOM     37  C   UNL     1      29.266  19.254  -5.763  1.00  0.00     0.175 C
ATOM     38  C   UNL     1      27.712  17.485  -5.505  1.00  0.00     0.180 C
ATOM     39  O   UNL     1      28.226  18.697  -4.947  1.00  0.00    -0.378 OA
BRANCH  36  40
ATOM     40  C   UNL     1      28.473  15.402  -6.804  1.00  0.00     0.102 C
BRANCH  40  41
ATOM     41  N   UNL     1      27.933  14.075  -6.521  1.00  0.00    -0.313 NA
ATOM     42  H   UNL     1      27.438  13.672  -7.316  1.00  0.00     0.122 HD
BRANCH  41  43
ATOM     43  C   UNL     1      27.205  13.864  -5.278  1.00  0.00     0.107 C
ATOM     44  G   UNL     1      25.668  14.204  -5.292  1.00  0.00     0.000 C
ENDBRANCH  41  43
ENDBRANCH  40  41
ENDBRANCH  36  40
ENDBRANCH  33  34
ENDBRANCH   5  33
TORSDOF 0
ENDMDL
MODEL 9
REMARK VINA RESULT:     -10.2      2.064      3.671
REMARK SMILES CN1CCN2c3ccc(cc3)-c3cnc4cccc(c4n3)-c3cc(F)c(c(F)c3)CN3CCOC[C@H]3CNC[C@H]2C1
REMARK SMILES IDX 22 1 23 2 24 3 25 4 26 5 27 6 28 7 29 8 19 9 12 10 13 11
REMARK SMILES IDX 21 12 14 13 20 14 15 15 16 16 18 17 17 18 9 19 6 20 7 21
REMARK SMILES IDX 11 22 8 23 10 24 5 25 2 26 3 27 41 28 4 29 40 30 1 31 30 33
REMARK SMILES IDX 31 34 32 35 36 36 33 37 35 38 34 39 37 40 38 41 39 43
REMARK H PARENT 38 42
REMARK Flexibility Score:   82.900
ROOT
ATOM      1  C   UNL     1      32.418  13.584  -3.984  1.00  0.00    -0.010 A
ATOM      2  C   UNL     1      32.823  14.457  -5.005  1.00  0.00     0.048 A
ATOM      3  C   UNL     1      31.905  15.310  -5.613  1.00  0.00     0.131 A
ATOM      4  F   UNL     1      32.346  16.143  -6.568  1.00  0.00    -0.207 F
ATOM      5  C   UNL     1      30.561  15.327  -5.239  1.00  0.00     0.038 A
ATOM      6  C   UNL     1      30.155  14.425  -4.257  1.00  0.00     0.131 A
ATOM      7  F   UNL     1      28.867  14.370  -3.887  1.00  0.00    -0.207 F
ATOM      8  C   UNL     1      31.060  13.563  -3.634  1.00  0.00     0.048 A
ENDROOT
BRANCH   1   9
ATOM      9  C   UNL     1      33.414  12.799  -3.228  1.00  0.00     0.010 A
ATOM     10  C   UNL     1      31.964   9.495  -3.399  1.00  0.00     0.089 A
ATOM     11  C   UNL     1      32.925   8.753  -2.739  1.00  0.00     0.140 A
ATOM     12  N   UNL     1      32.108  10.831  -3.532  1.00  0.00    -0.244 NA
ATOM     13  N   UNL     1      34.038   9.313  -2.198  1.00  0.00    -0.252 NA
ATOM     14  C   UNL     1      33.215  11.419  -3.041  1.00  0.00     0.097 A
ATOM     15  C   UNL     1      34.185  10.646  -2.360  1.00  0.00     0.089 A
ATOM     16  C   UNL     1      35.315  11.282  -1.863  1.00  0.00     0.030 A
ATOM     17  C   UNL     1      34.571  13.408  -2.722  1.00  0.00     0.011 A
ATOM     18  C   UNL     1      35.516  12.653  -2.036  1.00  0.00     0.003 A
BRANCH  10  19
ATOM     19  C   UNL     1      30.780   8.955  -4.060  1.00  0.00     0.002 A
ATOM     20  C   UNL     1      28.674   8.038  -5.758  1.00  0.00     0.037 A
ATOM     21  C   UNL     1      28.696   9.346  -5.266  1.00  0.00     0.026 A
ATOM     22  C   UNL     1      29.682   7.174  -5.296  1.00  0.00     0.026 A
ATOM     23  C   UNL     1      29.736   9.805  -4.448  1.00  0.00     0.012 A
ATOM     24  C   UNL     1      30.716   7.618  -4.460  1.00  0.00     0.012 A
BRANCH  20  25
ATOM     25  N   UNL     1      27.745   7.618  -6.694  1.00  0.00    -0.365 N
ATOM     26  N   UNL     1      25.474   6.840  -8.501  1.00  0.00    -0.303 NA
ATOM     27  C   UNL     1      25.364   7.021  -7.040  1.00  0.00     0.105 C
ATOM     28  C   UNL     1      26.856   7.083  -8.969  1.00  0.00     0.110 C
ATOM     29  C   UNL     1      26.665   6.707  -6.272  1.00  0.00     0.132 C
ATOM     30  C   UNL     1      27.714   8.079  -8.116  1.00  0.00     0.110 C
ATOM     31  C   UNL     1      24.506   7.685  -9.195  1.00  0.00     0.105 C
ATOM     32  G   UNL     1      29.116   8.223  -8.817  1.00  0.00     0.000 C
ENDBRANCH  20  25
ENDBRANCH  10  19
ENDBRANCH   1   9
BRANCH   5  33
ATOM     33  C   UNL     1      29.595  16.287  -5.881  1.00  0.00     0.126 C
BRANCH  33  34
ATOM     34  N   UNL     1      29.415  17.555  -5.136  1.00  0.00    -0.290 NA
ATOM     35  C   UNL     1      27.998  17.715  -4.760  1.00  0.00     0.113 C
ATOM     36  C   UNL     1      29.842  18.749  -5.940  1.00  0.00     0.096 C
ATOM     37  C   UNL     1      27.041  17.872  -5.958  1.00  0.00     0.175 C
ATOM     38  C   UNL     1      28.680  19.383  -6.759  1.00  0.00     0.180 C
ATOM     39  O   UNL     1      27.671  18.434  -7.117  1.00  0.00    -0.378 OA
BRANCH  36  40
ATOM     40  C   UNL     1      30.481  19.808  -4.977  1.00  0.00     0.102 C
BRANCH  40  41
ATOM     41  N   UNL     1      31.846  19.595  -4.501  1.00  0.00    -0.313 NA
ATOM     42  H   UNL     1      31.978  19.891  -3.535  1.00  0.00     0.122 HD
BRANCH  41  43
ATOM     43  C   UNL     1      32.956  20.015  -5.344  1.00  0.00     0.107 C
ATOM     44  G   UNL     1      33.010  21.540  -5.732  1.00  0.00     0.000 C
ENDBRANCH  41  43
ENDBRANCH  40  41
ENDBRANCH  36  40
ENDBRANCH  33  34
ENDBRANCH   5  33
TORSDOF 0
ENDMDL
