MODEL 1
REMARK VINA RESULT:      -8.7      0.000      0.000
REMARK SMILES N#C[C@@H]1C[C@H]2CNCC3(CC3)c3cnc4[nH]cc(c4n3)C(=O)N[C@H](C3CC3)C(=O)N2C1
REMARK SMILES IDX 12 1 13 2 14 3 15 4 16 5 17 6 18 7 19 8 20 9 21 11 23 12
REMARK SMILES IDX 22 13 24 15 28 16 29 17 30 18 1 19 2 20 3 21 4 22 31 23 5 24
REMARK SMILES IDX 25 26 26 27 27 28 9 29 10 30 11 31 8 32 7 33 6 35
REMARK H PARENT 16 10 23 14 7 34
REMARK Flexibility Score:  122.900
ROOT
ATOM      1  C   UNL     1      31.688   9.997  -3.755  1.00  0.00     0.067 A
ATOM      2  C   UNL     1      30.993   8.896  -4.284  1.00  0.00     0.138 A
ATOM      3  N   UNL     1      29.841   8.945  -5.003  1.00  0.00    -0.235 NA
ATOM      4  C   UNL     1      29.408  10.213  -5.113  1.00  0.00     0.156 A
ATOM      5  N   UNL     1      28.252  10.605  -5.721  1.00  0.00    -0.344 N
ATOM      6  C   UNL     1      28.086  11.955  -5.558  1.00  0.00     0.100 A
ATOM      7  C   UNL     1      29.183  12.457  -4.866  1.00  0.00     0.085 A
ATOM      8  C   UNL     1      30.034  11.345  -4.603  1.00  0.00     0.120 A
ATOM      9  N   UNL     1      31.217  11.266  -3.930  1.00  0.00    -0.246 NA
ATOM     10  H   UNL     1      27.606   9.969  -6.168  1.00  0.00     0.168 HD
ENDROOT
BRANCH   7  11
ATOM     11  C   UNL     1      29.324  13.843  -4.449  1.00  0.00     0.255 C
ATOM     12  N   UNL     1      28.795  14.757  -5.319  1.00  0.00    -0.340 N
ATOM     13  O   UNL     1      29.893  14.152  -3.407  1.00  0.00    -0.269 OA
ATOM     14  H   UNL     1      28.337  14.419  -6.159  1.00  0.00     0.164 HD
BRANCH  12  15
ATOM     15  C   UNL     1      29.084  16.183  -5.242  1.00  0.00     0.175 C
BRANCH  15  16
ATOM     16  C   UNL     1      29.731  16.566  -6.597  1.00  0.00     0.245 C
ATOM     17  O   UNL     1      29.312  16.182  -7.686  1.00  0.00    -0.272 OA
BRANCH  16  18
ATOM     18  N   UNL     1      30.946  17.238  -6.475  1.00  0.00    -0.335 N
ATOM     19  N   UNL     1      34.078  20.010  -6.173  1.00  0.00    -0.198 NA
ATOM     20  C   UNL     1      33.232  19.417  -5.645  1.00  0.00     0.067 C
ATOM     21  C   UNL     1      32.158  18.665  -4.974  1.00  0.00     0.114 C
ATOM     22  C   UNL     1      32.548  17.203  -4.754  1.00  0.00     0.047 C
ATOM     23  C   UNL     1      30.917  18.566  -5.866  1.00  0.00     0.138 C
ATOM     24  C   UNL     1      32.176  16.551  -6.089  1.00  0.00     0.100 C
ATOM     25  G   UNL     1      32.168  15.011  -6.055  1.00  0.00     0.000 C
ENDBRANCH  16  18
ENDBRANCH  15  16
BRANCH  15  26
ATOM     26  C   UNL     1      27.871  17.034  -4.947  1.00  0.00     0.021 C
ATOM     27  C   UNL     1      26.488  16.654  -5.429  1.00  0.00     0.006 C
ATOM     28  C   UNL     1      27.161  17.876  -5.987  1.00  0.00     0.006 C
ENDBRANCH  15  26
ENDBRANCH  12  15
ENDBRANCH   7  11
BRANCH   1  29
ATOM     29  C   UNL     1      32.948   9.802  -2.897  1.00  0.00     0.027 C
ATOM     30  C   UNL     1      32.781   9.316  -1.450  1.00  0.00     0.016 C
ATOM     31  C   UNL     1      33.331   8.383  -2.471  1.00  0.00     0.016 C
BRANCH  29  32
ATOM     32  C   UNL     1      34.034  10.843  -3.146  1.00  0.00     0.094 C
BRANCH  32  33
ATOM     33  N   UNL     1      33.670  12.236  -2.837  1.00  0.00    -0.314 NA
ATOM     34  H   UNL     1      33.513  12.704  -3.732  1.00  0.00     0.122 HD
BRANCH  33  35
ATOM     35  C   UNL     1      34.747  12.972  -2.147  1.00  0.00     0.106 C
ATOM     36  G   UNL     1      35.775  12.032  -1.489  1.00  0.00     0.000 C
ENDBRANCH  33  35
ENDBRANCH  32  33
ENDBRANCH  29  32
ENDBRANCH   1  29
TORSDOF 1
ENDMDL
MODEL 2
REMARK VINA RESULT:      -8.6      1.284      1.619
REMARK SMILES N#C[C@@H]1C[C@H]2CNCC3(CC3)c3cnc4[nH]cc(c4n3)C(=O)N[C@H](C3CC3)C(=O)N2C1
REMARK SMILES IDX 12 1 13 2 14 3 15 4 16 5 17 6 18 7 19 8 20 9 21 11 23 12
REMARK SMILES IDX 22 13 24 15 28 16 29 17 30 18 1 19 2 20 3 21 4 22 31 23 5 24
REMARK SMILES IDX 25 26 26 27 27 28 9 29 10 30 11 31 8 32 7 33 6 35
REMARK H PARENT 16 10 23 14 7 34
REMARK Flexibility Score:  122.900
ROOT
ATOM      1  C   UNL     1      31.691   9.836  -3.641  1.00  0.00     0.067 A
ATOM      2  C   UNL     1      31.144   8.565  -3.888  1.00  0.00     0.138 A
ATOM      3  N   UNL     1      30.005   8.303  -4.579  1.00  0.00    -0.235 NA
ATOM      4  C   UNL     1      29.420   9.447  -4.972  1.00  0.00     0.156 A
ATOM      5  N   UNL     1      28.231   9.542  -5.635  1.00  0.00    -0.344 N
ATOM      6  C   UNL     1      27.898  10.861  -5.788  1.00  0.00     0.100 A
ATOM      7  C   UNL     1      28.915  11.642  -5.250  1.00  0.00     0.085 A
ATOM      8  C   UNL     1      29.893  10.735  -4.750  1.00  0.00     0.120 A
ATOM      9  N   UNL     1      31.069  10.961  -4.097  1.00  0.00    -0.246 NA
ATOM     10  H   UNL     1      27.674   8.744  -5.912  1.00  0.00     0.168 HD
ENDROOT
BRANCH   7  11
ATOM     11  C   UNL     1      28.878  13.093  -5.169  1.00  0.00     0.255 C
ATOM     12  N   UNL     1      29.796  13.733  -5.955  1.00  0.00    -0.340 N
ATOM     13  O   UNL     1      28.092  13.681  -4.431  1.00  0.00    -0.269 OA
ATOM     14  H   UNL     1      30.409  13.172  -6.539  1.00  0.00     0.164 HD
BRANCH  12  15
ATOM     15  C   UNL     1      30.123  15.144  -5.803  1.00  0.00     0.175 C
BRANCH  15  16
ATOM     16  C   UNL     1      31.665  15.246  -5.924  1.00  0.00     0.245 C
ATOM     17  O   UNL     1      32.395  14.288  -6.168  1.00  0.00    -0.272 OA
BRANCH  16  18
ATOM     18  N   UNL     1      32.182  16.485  -5.549  1.00  0.00    -0.335 N
ATOM     19  N   UNL     1      33.899  20.303  -5.322  1.00  0.00    -0.198 NA
ATOM     20  C   UNL     1      32.955  19.657  -5.514  1.00  0.00     0.067 C
ATOM     21  C   UNL     1      31.757  18.837  -5.759  1.00  0.00     0.114 C
ATOM     22  C   UNL     1      31.166  18.300  -4.455  1.00  0.00     0.047 C
ATOM     23  C   UNL     1      32.112  17.563  -6.533  1.00  0.00     0.138 C
ATOM     24  C   UNL     1      31.988  17.033  -4.209  1.00  0.00     0.100 C
ATOM     25  G   UNL     1      31.407  16.108  -3.123  1.00  0.00     0.000 C
ENDBRANCH  16  18
ENDBRANCH  15  16
BRANCH  15  26
ATOM     26  C   UNL     1      29.429  16.040  -6.802  1.00  0.00     0.021 C
ATOM     27  C   UNL     1      28.332  16.998  -6.394  1.00  0.00     0.006 C
ATOM     28  C   UNL     1      28.008  15.828  -7.279  1.00  0.00     0.006 C
ENDBRANCH  15  26
ENDBRANCH  12  15
ENDBRANCH   7  11
BRANCH   1  29
ATOM     29  C   UNL     1      32.955  10.002  -2.782  1.00  0.00     0.027 C
ATOM     30  C   UNL     1      33.054   9.221  -1.463  1.00  0.00     0.016 C
ATOM     31  C   UNL     1      33.893   8.805  -2.620  1.00  0.00     0.016 C
BRANCH  29  32
ATOM     32  C   UNL     1      33.519  11.419  -2.779  1.00  0.00     0.094 C
BRANCH  32  33
ATOM     33  N   UNL     1      34.981  11.529  -2.918  1.00  0.00    -0.314 NA
ATOM     34  H   UNL     1      35.352  10.577  -2.870  1.00  0.00     0.122 HD
BRANCH  33  35
ATOM     35  C   UNL     1      35.607  12.293  -1.823  1.00  0.00     0.106 C
ATOM     36  G   UNL     1      36.209  11.381  -0.737  1.00  0.00     0.000 C
ENDBRANCH  33  35
ENDBRANCH  32  33
ENDBRANCH  29  32
ENDBRANCH   1  29
TORSDOF 1
ENDMDL
MODEL 3
REMARK VINA RESULT:      -8.6      1.804      4.137
REMARK SMILES N#C[C@@H]1C[C@H]2CNCC3(CC3)c3cnc4[nH]cc(c4n3)C(=O)N[C@H](C3CC3)C(=O)N2C1
REMARK SMILES IDX 12 1 13 2 14 3 15 4 16 5 17 6 18 7 19 8 20 9 21 11 23 12
REMARK SMILES IDX 22 13 24 15 28 16 29 17 30 18 1 19 2 20 3 21 4 22 31 23 5 24
REMARK SMILES IDX 25 26 26 27 27 28 9 29 10 30 11 31 8 32 7 33 6 35
REMARK H PARENT 16 10 23 14 7 34
REMARK Flexibility Score:  122.900
ROOT
ATOM      1  C   UNL     1      33.805  11.421  -2.429  1.00  0.00     0.067 A
ATOM      2  C   UNL     1      35.038  12.081  -2.299  1.00  0.00     0.138 A
ATOM      3  N   UNL     1      35.254  13.414  -2.446  1.00  0.00    -0.235 NA
ATOM      4  C   UNL     1      34.115  14.040  -2.788  1.00  0.00     0.156 A
ATOM      5  N   UNL     1      33.996  15.369  -3.070  1.00  0.00    -0.344 N
ATOM      6  C   UNL     1      32.714  15.637  -3.471  1.00  0.00     0.100 A
ATOM      7  C   UNL     1      31.973  14.462  -3.406  1.00  0.00     0.085 A
ATOM      8  C   UNL     1      32.866  13.450  -2.950  1.00  0.00     0.120 A
ATOM      9  N   UNL     1      32.673  12.116  -2.743  1.00  0.00    -0.246 NA
ATOM     10  H   UNL     1      34.764  16.025  -3.033  1.00  0.00     0.168 HD
ENDROOT
BRANCH   7  11
ATOM     11  C   UNL     1      30.585  14.345  -3.824  1.00  0.00     0.255 C
ATOM     12  N   UNL     1      30.331  14.793  -5.092  1.00  0.00    -0.340 N
ATOM     13  O   UNL     1      29.719  13.897  -3.079  1.00  0.00    -0.269 OA
ATOM     14  H   UNL     1      31.105  15.147  -5.645  1.00  0.00     0.164 HD
BRANCH  12  15
ATOM     15  C   UNL     1      28.985  15.038  -5.590  1.00  0.00     0.175 C
BRANCH  15  16
ATOM     16  C   UNL     1      29.094  16.248  -6.552  1.00  0.00     0.245 C
ATOM     17  O   UNL     1      29.136  16.145  -7.776  1.00  0.00    -0.272 OA
BRANCH  16  18
ATOM     18  N   UNL     1      29.328  17.463  -5.911  1.00  0.00    -0.335 N
ATOM     19  N   UNL     1      30.911  20.844  -4.000  1.00  0.00    -0.198 NA
ATOM     20  C   UNL     1      30.674  20.293  -4.994  1.00  0.00     0.067 C
ATOM     21  C   UNL     1      30.376  19.594  -6.255  1.00  0.00     0.114 C
ATOM     22  C   UNL     1      28.888  19.667  -6.600  1.00  0.00     0.047 C
ATOM     23  C   UNL     1      30.632  18.090  -6.124  1.00  0.00     0.138 C
ATOM     24  C   UNL     1      28.301  18.497  -5.807  1.00  0.00     0.100 C
ATOM     25  G   UNL     1      26.859  18.129  -6.205  1.00  0.00     0.000 C
ENDBRANCH  16  18
ENDBRANCH  15  16
BRANCH  15  26
ATOM     26  C   UNL     1      28.362  13.843  -6.273  1.00  0.00     0.021 C
ATOM     27  C   UNL     1      26.902  13.814  -6.665  1.00  0.00     0.006 C
ATOM     28  C   UNL     1      27.402  12.890  -5.591  1.00  0.00     0.006 C
ENDBRANCH  15  26
ENDBRANCH  12  15
ENDBRANCH   7  11
BRANCH   1  29
ATOM     29  C   UNL     1      33.706   9.892  -2.305  1.00  0.00     0.027 C
ATOM     30  C   UNL     1      34.900   9.041  -2.762  1.00  0.00     0.016 C
ATOM     31  C   UNL     1      34.619   9.178  -1.306  1.00  0.00     0.016 C
BRANCH  29  32
ATOM     32  C   UNL     1      32.317   9.335  -2.603  1.00  0.00     0.094 C
BRANCH  32  33
ATOM     33  N   UNL     1      31.781   9.630  -3.942  1.00  0.00    -0.314 NA
ATOM     34  H   UNL     1      31.250  10.499  -3.860  1.00  0.00     0.122 HD
BRANCH  33  35
ATOM     35  C   UNL     1      30.848   8.596  -4.428  1.00  0.00     0.106 C
ATOM     36  G   UNL     1      29.819   9.155  -5.429  1.00  0.00     0.000 C
ENDBRANCH  33  35
ENDBRANCH  32  33
ENDBRANCH  29  32
ENDBRANCH   1  29
TORSDOF 1
ENDMDL
MODEL 4
REMARK VINA RESULT:      -8.6      1.678      2.250
REMARK SMILES N#C[C@@H]1C[C@H]2CNCC3(CC3)c3cnc4[nH]cc(c4n3)C(=O)N[C@H](C3CC3)C(=O)N2C1
REMARK SMILES IDX 12 1 13 2 14 3 15 4 16 5 17 6 18 7 19 8 20 9 21 11 23 12
REMARK SMILES IDX 22 13 24 15 28 16 29 17 30 18 1 19 2 20 3 21 4 22 31 23 5 24
REMARK SMILES IDX 25 26 26 27 27 28 9 29 10 30 11 31 8 32 7 33 6 35
REMARK H PARENT 16 10 23 14 7 34
REMARK Flexibility Score:  122.900
ROOT
ATOM      1  C   UNL     1      31.292   9.246  -4.061  1.00  0.00     0.067 A
ATOM      2  C   UNL     1      31.093   7.884  -4.344  1.00  0.00     0.138 A
ATOM      3  N   UNL     1      30.061   7.354  -5.050  1.00  0.00    -0.235 NA
ATOM      4  C   UNL     1      29.199   8.317  -5.419  1.00  0.00     0.156 A
ATOM      5  N   UNL     1      28.027   8.117  -6.087  1.00  0.00    -0.344 N
ATOM      6  C   UNL     1      27.363   9.309  -6.210  1.00  0.00     0.100 A
ATOM      7  C   UNL     1      28.143  10.312  -5.646  1.00  0.00     0.085 A
ATOM      8  C   UNL     1      29.323   9.678  -5.161  1.00  0.00     0.120 A
ATOM      9  N   UNL     1      30.400  10.184  -4.495  1.00  0.00    -0.246 NA
ATOM     10  H   UNL     1      27.696   7.210  -6.388  1.00  0.00     0.168 HD
ENDROOT
BRANCH   7  11
ATOM     11  C   UNL     1      27.731  11.702  -5.529  1.00  0.00     0.255 C
ATOM     12  N   UNL     1      28.667  12.612  -5.939  1.00  0.00    -0.340 N
ATOM     13  O   UNL     1      26.635  12.017  -5.075  1.00  0.00    -0.269 OA
ATOM     14  H   UNL     1      29.549  12.268  -6.305  1.00  0.00     0.164 HD
BRANCH  12  15
ATOM     15  C   UNL     1      28.576  14.033  -5.636  1.00  0.00     0.175 C
BRANCH  15  16
ATOM     16  C   UNL     1      29.733  14.340  -4.651  1.00  0.00     0.245 C
ATOM     17  O   UNL     1      29.937  13.705  -3.619  1.00  0.00    -0.272 OA
BRANCH  16  18
ATOM     18  N   UNL     1      30.422  15.518  -4.935  1.00  0.00    -0.335 N
ATOM     19  N   UNL     1      31.801  19.458  -5.328  1.00  0.00    -0.198 NA
ATOM     20  C   UNL     1      31.734  18.497  -4.682  1.00  0.00     0.067 C
ATOM     21  C   UNL     1      31.649  17.277  -3.861  1.00  0.00     0.114 C
ATOM     22  C   UNL     1      32.601  16.192  -4.365  1.00  0.00     0.047 C
ATOM     23  C   UNL     1      30.271  16.623  -3.990  1.00  0.00     0.138 C
ATOM     24  C   UNL     1      31.782  15.513  -5.466  1.00  0.00     0.100 C
ATOM     25  G   UNL     1      32.368  14.172  -5.948  1.00  0.00     0.000 C
ENDBRANCH  16  18
ENDBRANCH  15  16
BRANCH  15  26
ATOM     26  C   UNL     1      28.638  14.921  -6.857  1.00  0.00     0.021 C
ATOM     27  C   UNL     1      27.756  16.141  -7.007  1.00  0.00     0.006 C
ATOM     28  C   UNL     1      27.562  14.965  -7.921  1.00  0.00     0.006 C
ENDBRANCH  15  26
ENDBRANCH  12  15
ENDBRANCH   7  11
BRANCH   1  29
ATOM     29  C   UNL     1      32.469   9.712  -3.190  1.00  0.00     0.027 C
ATOM     30  C   UNL     1      32.419   9.435  -1.680  1.00  0.00     0.016 C
ATOM     31  C   UNL     1      33.356   8.654  -2.532  1.00  0.00     0.016 C
BRANCH  29  32
ATOM     32  C   UNL     1      33.065  11.049  -3.619  1.00  0.00     0.094 C
BRANCH  32  33
ATOM     33  N   UNL     1      32.360  12.250  -3.138  1.00  0.00    -0.314 NA
ATOM     34  H   UNL     1      31.992  12.724  -3.965  1.00  0.00     0.122 HD
BRANCH  33  35
ATOM     35  C   UNL     1      33.252  13.205  -2.453  1.00  0.00     0.106 C
ATOM     36  G   UNL     1      34.723  12.748  -2.465  1.00  0.00     0.000 C
ENDBRANCH  33  35
ENDBRANCH  32  33
ENDBRANCH  29  32
ENDBRANCH   1  29
TORSDOF 1
ENDMDL
MODEL 5
REMARK VINA RESULT:      -8.5      2.228      5.414
REMARK SMILES N#C[C@@H]1C[C@H]2CNCC3(CC3)c3cnc4[nH]cc(c4n3)C(=O)N[C@H](C3CC3)C(=O)N2C1
REMARK SMILES IDX 12 1 13 2 14 3 15 4 16 5 17 6 18 7 19 8 20 9 21 11 23 12
REMARK SMILES IDX 22 13 24 15 28 16 29 17 30 18 1 19 2 20 3 21 4 22 31 23 5 24
REMARK SMILES IDX 25 26 26 27 27 28 9 29 10 30 11 31 8 32 7 33 6 35
REMARK H PARENT 16 10 23 14 7 34
REMARK Flexibility Score:  122.900
ROOT
ATOM      1  C   UNL     1      31.263   9.215  -4.040  1.00  0.00     0.067 A
ATOM      2  C   UNL     1      32.104   8.669  -3.056  1.00  0.00     0.138 A
ATOM      3  N   UNL     1      33.085   9.326  -2.384  1.00  0.00    -0.235 NA
ATOM      4  C   UNL     1      33.188  10.592  -2.823  1.00  0.00     0.156 A
ATOM      5  N   UNL     1      34.112  11.504  -2.402  1.00  0.00    -0.344 N
ATOM      6  C   UNL     1      33.981  12.656  -3.131  1.00  0.00     0.100 A
ATOM      7  C   UNL     1      32.920  12.503  -4.017  1.00  0.00     0.085 A
ATOM      8  C   UNL     1      32.404  11.193  -3.802  1.00  0.00     0.120 A
ATOM      9  N   UNL     1      31.392  10.519  -4.419  1.00  0.00    -0.246 NA
ATOM     10  H   UNL     1      34.810  11.314  -1.695  1.00  0.00     0.168 HD
ENDROOT
BRANCH   7  11
ATOM     11  C   UNL     1      32.528  13.497  -5.004  1.00  0.00     0.255 C
ATOM     12  N   UNL     1      32.544  14.788  -4.551  1.00  0.00    -0.340 N
ATOM     13  O   UNL     1      32.190  13.183  -6.141  1.00  0.00    -0.269 OA
ATOM     14  H   UNL     1      32.839  14.963  -3.596  1.00  0.00     0.164 HD
BRANCH  12  15
ATOM     15  C   UNL     1      31.915  15.887  -5.270  1.00  0.00     0.175 C
BRANCH  15  16
ATOM     16  C   UNL     1      30.704  16.329  -4.409  1.00  0.00     0.245 C
ATOM     17  O   UNL     1      30.803  16.749  -3.258  1.00  0.00    -0.272 OA
BRANCH  16  18
ATOM     18  N   UNL     1      29.466  16.039  -4.980  1.00  0.00    -0.335 N
ATOM     19  N   UNL     1      25.912  15.920  -7.201  1.00  0.00    -0.198 NA
ATOM     20  C   UNL     1      27.041  15.661  -7.132  1.00  0.00     0.067 C
ATOM     21  C   UNL     1      28.474  15.333  -7.047  1.00  0.00     0.114 C
ATOM     22  C   UNL     1      28.722  14.131  -6.134  1.00  0.00     0.047 C
ATOM     23  C   UNL     1      29.255  16.459  -6.364  1.00  0.00     0.138 C
ATOM     24  C   UNL     1      28.781  14.771  -4.745  1.00  0.00     0.100 C
ATOM     25  G   UNL     1      29.333  13.841  -3.648  1.00  0.00     0.000 C
ENDBRANCH  16  18
ENDBRANCH  15  16
BRANCH  15  26
ATOM     26  C   UNL     1      32.846  17.043  -5.551  1.00  0.00     0.021 C
ATOM     27  C   UNL     1      32.436  18.210  -6.421  1.00  0.00     0.006 C
ATOM     28  C   UNL     1      33.518  17.277  -6.888  1.00  0.00     0.006 C
ENDBRANCH  15  26
ENDBRANCH  12  15
ENDBRANCH   7  11
BRANCH   1  29
ATOM     29  C   UNL     1      30.233   8.343  -4.777  1.00  0.00     0.027 C
ATOM     30  C   UNL     1      28.815   8.895  -4.977  1.00  0.00     0.016 C
ATOM     31  C   UNL     1      29.731   8.802  -6.146  1.00  0.00     0.016 C
BRANCH  29  32
ATOM     32  C   UNL     1      30.349   6.854  -4.466  1.00  0.00     0.094 C
BRANCH  32  33
ATOM     33  N   UNL     1      30.100   5.941  -5.595  1.00  0.00    -0.314 NA
ATOM     34  H   UNL     1      29.993   6.526  -6.426  1.00  0.00     0.122 HD
BRANCH  33  35
ATOM     35  C   UNL     1      28.852   5.169  -5.445  1.00  0.00     0.106 C
ATOM     36  G   UNL     1      27.846   5.450  -6.577  1.00  0.00     0.000 C
ENDBRANCH  33  35
ENDBRANCH  32  33
ENDBRANCH  29  32
ENDBRANCH   1  29
TORSDOF 1
ENDMDL
MODEL 6
REMARK VINA RESULT:      -8.5      1.981      5.067
REMARK SMILES N#C[C@@H]1C[C@H]2CNCC3(CC3)c3cnc4[nH]cc(c4n3)C(=O)N[C@H](C3CC3)C(=O)N2C1
REMARK SMILES IDX 12 1 13 2 14 3 15 4 16 5 17 6 18 7 19 8 20 9 21 11 23 12
REMARK SMILES IDX 22 13 24 15 28 16 29 17 30 18 1 19 2 20 3 21 4 22 31 23 5 24
REMARK SMILES IDX 25 26 26 27 27 28 9 29 10 30 11 31 8 32 7 33 6 35
REMARK H PARENT 16 10 23 14 7 34
REMARK Flexibility Score:  122.900
ROOT
ATOM      1  C   UNL     1      30.362   9.529  -4.580  1.00  0.00     0.067 A
ATOM      2  C   UNL     1      31.072   8.737  -3.662  1.00  0.00     0.138 A
ATOM      3  N   UNL     1      32.149   9.128  -2.931  1.00  0.00    -0.235 NA
ATOM      4  C   UNL     1      32.492  10.390  -3.237  1.00  0.00     0.156 A
ATOM      5  N   UNL     1      33.564  11.065  -2.729  1.00  0.00    -0.344 N
ATOM      6  C   UNL     1      33.660  12.290  -3.335  1.00  0.00     0.100 A
ATOM      7  C   UNL     1      32.602  12.430  -4.226  1.00  0.00     0.085 A
ATOM      8  C   UNL     1      31.848  11.224  -4.144  1.00  0.00     0.120 A
ATOM      9  N   UNL     1      30.737  10.818  -4.823  1.00  0.00    -0.246 NA
ATOM     10  H   UNL     1      34.204  10.677  -2.049  1.00  0.00     0.168 HD
ENDROOT
BRANCH   7  11
ATOM     11  C   UNL     1      32.415  13.575  -5.102  1.00  0.00     0.255 C
ATOM     12  N   UNL     1      32.608  14.790  -4.503  1.00  0.00    -0.340 N
ATOM     13  O   UNL     1      32.089  13.445  -6.278  1.00  0.00    -0.269 OA
ATOM     14  H   UNL     1      32.880  14.810  -3.525  1.00  0.00     0.164 HD
BRANCH  12  15
ATOM     15  C   UNL     1      32.192  16.047  -5.109  1.00  0.00     0.175 C
BRANCH  15  16
ATOM     16  C   UNL     1      31.103  16.635  -4.176  1.00  0.00     0.245 C
ATOM     17  O   UNL     1      31.282  16.874  -2.984  1.00  0.00    -0.272 OA
BRANCH  16  18
ATOM     18  N   UNL     1      29.836  16.702  -4.755  1.00  0.00    -0.335 N
ATOM     19  N   UNL     1      26.326  17.713  -6.813  1.00  0.00    -0.198 NA
ATOM     20  C   UNL     1      27.393  17.259  -6.848  1.00  0.00     0.067 C
ATOM     21  C   UNL     1      28.748  16.684  -6.893  1.00  0.00     0.114 C
ATOM     22  C   UNL     1      28.781  15.276  -6.297  1.00  0.00     0.047 C
ATOM     23  C   UNL     1      29.708  17.468  -5.993  1.00  0.00     0.138 C
ATOM     24  C   UNL     1      28.942  15.548  -4.799  1.00  0.00     0.100 C
ATOM     25  G   UNL     1      29.319  14.305  -3.971  1.00  0.00     0.000 C
ENDBRANCH  16  18
ENDBRANCH  15  16
BRANCH  15  26
ATOM     26  C   UNL     1      33.324  17.024  -5.323  1.00  0.00     0.021 C
ATOM     27  C   UNL     1      33.075  18.476  -5.667  1.00  0.00     0.006 C
ATOM     28  C   UNL     1      33.718  17.571  -6.679  1.00  0.00     0.006 C
ENDBRANCH  15  26
ENDBRANCH  12  15
ENDBRANCH   7  11
BRANCH   1  29
ATOM     29  C   UNL     1      29.198   8.945  -5.397  1.00  0.00     0.027 C
ATOM     30  C   UNL     1      29.457   8.539  -6.856  1.00  0.00     0.016 C
ATOM     31  C   UNL     1      29.270   7.479  -5.828  1.00  0.00     0.016 C
BRANCH  29  32
ATOM     32  C   UNL     1      27.848   9.587  -5.097  1.00  0.00     0.094 C
BRANCH  32  33
ATOM     33  N   UNL     1      27.865  11.042  -4.871  1.00  0.00    -0.314 NA
ATOM     34  H   UNL     1      27.171  11.234  -4.146  1.00  0.00     0.122 HD
BRANCH  33  35
ATOM     35  C   UNL     1      27.470  11.814  -6.065  1.00  0.00     0.106 C
ATOM     36  G   UNL     1      26.425  12.899  -5.744  1.00  0.00     0.000 C
ENDBRANCH  33  35
ENDBRANCH  32  33
ENDBRANCH  29  32
ENDBRANCH   1  29
TORSDOF 1
ENDMDL
MODEL 7
REMARK VINA RESULT:      -8.4      2.297      5.469
REMARK SMILES N#C[C@@H]1C[C@H]2CNCC3(CC3)c3cnc4[nH]cc(c4n3)C(=O)N[C@H](C3CC3)C(=O)N2C1
REMARK SMILES IDX 12 1 13 2 14 3 15 4 16 5 17 6 18 7 19 8 20 9 21 11 23 12
REMARK SMILES IDX 22 13 24 15 28 16 29 17 30 18 1 19 2 20 3 21 4 22 31 23 5 24
REMARK SMILES IDX 25 26 26 27 27 28 9 29 10 30 11 31 8 32 7 33 6 35
REMARK H PARENT 16 10 23 14 7 34
REMARK Flexibility Score:  122.900
ROOT
ATOM      1  C   UNL     1      30.127   9.327  -4.909  1.00  0.00     0.067 A
ATOM      2  C   UNL     1      30.770   8.460  -4.010  1.00  0.00     0.138 A
ATOM      3  N   UNL     1      31.813   8.775  -3.198  1.00  0.00    -0.235 NA
ATOM      4  C   UNL     1      32.197  10.047  -3.399  1.00  0.00     0.156 A
ATOM      5  N   UNL     1      33.252  10.661  -2.789  1.00  0.00    -0.344 N
ATOM      6  C   UNL     1      33.406  11.921  -3.304  1.00  0.00     0.100 A
ATOM      7  C   UNL     1      32.401  12.145  -4.239  1.00  0.00     0.085 A
ATOM      8  C   UNL     1      31.620  10.954  -4.280  1.00  0.00     0.120 A
ATOM      9  N   UNL     1      30.540  10.621  -5.043  1.00  0.00    -0.246 NA
ATOM     10  H   UNL     1      33.847  10.214  -2.104  1.00  0.00     0.168 HD
ENDROOT
BRANCH   7  11
ATOM     11  C   UNL     1      32.286  13.350  -5.044  1.00  0.00     0.255 C
ATOM     12  N   UNL     1      32.154  14.507  -4.326  1.00  0.00    -0.340 N
ATOM     13  O   UNL     1      32.286  13.312  -6.271  1.00  0.00    -0.269 OA
ATOM     14  H   UNL     1      32.166  14.451  -3.312  1.00  0.00     0.164 HD
BRANCH  12  15
ATOM     15  C   UNL     1      31.735  15.767  -4.922  1.00  0.00     0.175 C
BRANCH  15  16
ATOM     16  C   UNL     1      30.449  16.195  -4.169  1.00  0.00     0.245 C
ATOM     17  O   UNL     1      30.407  16.409  -2.960  1.00  0.00    -0.272 OA
BRANCH  16  18
ATOM     18  N   UNL     1      29.292  16.139  -4.944  1.00  0.00    -0.335 N
ATOM     19  N   UNL     1      26.101  16.788  -7.585  1.00  0.00    -0.198 NA
ATOM     20  C   UNL     1      27.189  16.418  -7.426  1.00  0.00     0.067 C
ATOM     21  C   UNL     1      28.570  15.949  -7.224  1.00  0.00     0.114 C
ATOM     22  C   UNL     1      28.606  14.573  -6.558  1.00  0.00     0.047 C
ATOM     23  C   UNL     1      29.313  16.842  -6.226  1.00  0.00     0.138 C
ATOM     24  C   UNL     1      28.501  14.917  -5.070  1.00  0.00     0.100 C
ATOM     25  G   UNL     1      28.826  13.742  -4.129  1.00  0.00     0.000 C
ENDBRANCH  16  18
ENDBRANCH  15  16
BRANCH  15  26
ATOM     26  C   UNL     1      32.791  16.846  -4.872  1.00  0.00     0.021 C
ATOM     27  C   UNL     1      32.501  18.271  -5.285  1.00  0.00     0.006 C
ATOM     28  C   UNL     1      33.449  17.438  -6.101  1.00  0.00     0.006 C
ENDBRANCH  15  26
ENDBRANCH  12  15
ENDBRANCH   7  11
BRANCH   1  29
ATOM     29  C   UNL     1      28.999   8.826  -5.825  1.00  0.00     0.027 C
ATOM     30  C   UNL     1      29.348   8.417  -7.263  1.00  0.00     0.016 C
ATOM     31  C   UNL     1      29.011   7.363  -6.268  1.00  0.00     0.016 C
BRANCH  29  32
ATOM     32  C   UNL     1      27.672   9.552  -5.625  1.00  0.00     0.094 C
BRANCH  32  33
ATOM     33  N   UNL     1      26.677   8.854  -4.793  1.00  0.00    -0.314 NA
ATOM     34  H   UNL     1      27.197   8.381  -4.050  1.00  0.00     0.122 HD
BRANCH  33  35
ATOM     35  C   UNL     1      25.937   7.814  -5.532  1.00  0.00     0.106 C
ATOM     36  G   UNL     1      25.071   6.937  -4.608  1.00  0.00     0.000 C
ENDBRANCH  33  35
ENDBRANCH  32  33
ENDBRANCH  29  32
ENDBRANCH   1  29
TORSDOF 1
ENDMDL
MODEL 8
REMARK VINA RESULT:      -8.3      2.196      5.649
REMARK SMILES N#C[C@@H]1C[C@H]2CNCC3(CC3)c3cnc4[nH]cc(c4n3)C(=O)N[C@H](C3CC3)C(=O)N2C1
REMARK SMILES IDX 12 1 13 2 14 3 15 4 16 5 17 6 18 7 19 8 20 9 21 11 23 12
REMARK SMILES IDX 22 13 24 15 28 16 29 17 30 18 1 19 2 20 3 21 4 22 31 23 5 24
REMARK SMILES IDX 25 26 26 27 27 28 9 29 10 30 11 31 8 32 7 33 6 35
REMARK H PARENT 16 10 23 14 7 34
REMARK Flexibility Score:  122.900
ROOT
ATOM      1  C   UNL     1      30.979   8.940  -4.266  1.00  0.00     0.067 A
ATOM      2  C   UNL     1      31.764   8.273  -3.309  1.00  0.00     0.138 A
ATOM      3  N   UNL     1      32.747   8.826  -2.552  1.00  0.00    -0.235 NA
ATOM      4  C   UNL     1      32.915  10.120  -2.871  1.00  0.00     0.156 A
ATOM      5  N   UNL     1      33.859  10.950  -2.341  1.00  0.00    -0.344 N
ATOM      6  C   UNL     1      33.799  12.167  -2.966  1.00  0.00     0.100 A
ATOM      7  C   UNL     1      32.763  12.139  -3.894  1.00  0.00     0.085 A
ATOM      8  C   UNL     1      32.189  10.839  -3.814  1.00  0.00     0.120 A
ATOM      9  N   UNL     1      31.173  10.266  -4.521  1.00  0.00    -0.246 NA
ATOM     10  H   UNL     1      34.525  10.669  -1.633  1.00  0.00     0.168 HD
ENDROOT
BRANCH   7  11
ATOM     11  C   UNL     1      32.445  13.233  -4.798  1.00  0.00     0.255 C
ATOM     12  N   UNL     1      32.489  14.476  -4.229  1.00  0.00    -0.340 N
ATOM     13  O   UNL     1      32.141  13.037  -5.971  1.00  0.00    -0.269 OA
ATOM     14  H   UNL     1      32.753  14.552  -3.251  1.00  0.00     0.164 HD
BRANCH  12  15
ATOM     15  C   UNL     1      31.927  15.659  -4.865  1.00  0.00     0.175 C
BRANCH  15  16
ATOM     16  C   UNL     1      30.517  15.851  -4.250  1.00  0.00     0.245 C
ATOM     17  O   UNL     1      30.320  16.263  -3.109  1.00  0.00    -0.272 OA
BRANCH  16  18
ATOM     18  N   UNL     1      29.482  15.343  -5.034  1.00  0.00    -0.335 N
ATOM     19  N   UNL     1      26.619  13.011  -7.020  1.00  0.00    -0.198 NA
ATOM     20  C   UNL     1      26.924  13.596  -6.065  1.00  0.00     0.067 C
ATOM     21  C   UNL     1      27.313  14.336  -4.852  1.00  0.00     0.114 C
ATOM     22  C   UNL     1      27.186  15.847  -5.051  1.00  0.00     0.047 C
ATOM     23  C   UNL     1      28.801  14.146  -4.546  1.00  0.00     0.138 C
ATOM     24  C   UNL     1      28.520  16.212  -5.707  1.00  0.00     0.100 C
ATOM     25  G   UNL     1      28.809  17.725  -5.742  1.00  0.00     0.000 C
ENDBRANCH  16  18
ENDBRANCH  15  16
BRANCH  15  26
ATOM     26  C   UNL     1      32.775  16.899  -4.702  1.00  0.00     0.021 C
ATOM     27  C   UNL     1      32.312  18.256  -5.183  1.00  0.00     0.006 C
ATOM     28  C   UNL     1      33.484  17.590  -5.848  1.00  0.00     0.006 C
ENDBRANCH  15  26
ENDBRANCH  12  15
ENDBRANCH   7  11
BRANCH   1  29
ATOM     29  C   UNL     1      29.942   8.181  -5.109  1.00  0.00     0.027 C
ATOM     30  C   UNL     1      28.515   8.742  -5.195  1.00  0.00     0.016 C
ATOM     31  C   UNL     1      29.408   8.842  -6.381  1.00  0.00     0.016 C
BRANCH  29  32
ATOM     32  C   UNL     1      30.075   6.664  -5.035  1.00  0.00     0.094 C
BRANCH  32  33
ATOM     33  N   UNL     1      28.820   5.918  -4.842  1.00  0.00    -0.314 NA
ATOM     34  H   UNL     1      28.897   5.445  -3.939  1.00  0.00     0.122 HD
BRANCH  33  35
ATOM     35  C   UNL     1      28.610   4.872  -5.861  1.00  0.00     0.106 C
ATOM     36  G   UNL     1      29.503   5.070  -7.100  1.00  0.00     0.000 C
ENDBRANCH  33  35
ENDBRANCH  32  33
ENDBRANCH  29  32
ENDBRANCH   1  29
TORSDOF 1
ENDMDL
MODEL 9
REMARK VINA RESULT:      -8.3      1.824      2.732
REMARK SMILES N#C[C@@H]1C[C@H]2CNCC3(CC3)c3cnc4[nH]cc(c4n3)C(=O)N[C@H](C3CC3)C(=O)N2C1
REMARK SMILES IDX 12 1 13 2 14 3 15 4 16 5 17 6 18 7 19 8 20 9 21 11 23 12
REMARK SMILES IDX 22 13 24 15 28 16 29 17 30 18 1 19 2 20 3 21 4 22 31 23 5 24
REMARK SMILES IDX 25 26 26 27 27 28 9 29 10 30 11 31 8 32 7 33 6 35
REMARK H PARENT 16 10 23 14 7 34
REMARK Flexibility Score:  122.900
ROOT
ATOM      1  C   UNL     1      33.308  11.502  -3.103  1.00  0.00     0.067 A
ATOM      2  C   UNL     1      33.288  10.117  -2.868  1.00  0.00     0.138 A
ATOM      3  N   UNL     1      32.311   9.253  -3.249  1.00  0.00    -0.235 NA
ATOM      4  C   UNL     1      31.311   9.912  -3.858  1.00  0.00     0.156 A
ATOM      5  N   UNL     1      30.151   9.352  -4.309  1.00  0.00    -0.344 N
ATOM      6  C   UNL     1      29.325  10.335  -4.786  1.00  0.00     0.100 A
ATOM      7  C   UNL     1      29.982  11.556  -4.682  1.00  0.00     0.085 A
ATOM      8  C   UNL     1      31.256  11.279  -4.109  1.00  0.00     0.120 A
ATOM      9  N   UNL     1      32.278  12.111  -3.760  1.00  0.00    -0.246 NA
ATOM     10  H   UNL     1      29.937   8.366  -4.240  1.00  0.00     0.168 HD
ENDROOT
BRANCH   7  11
ATOM     11  C   UNL     1      29.387  12.838  -5.027  1.00  0.00     0.255 C
ATOM     12  N   UNL     1      30.192  13.661  -5.765  1.00  0.00    -0.340 N
ATOM     13  O   UNL     1      28.258  13.149  -4.658  1.00  0.00    -0.269 OA
ATOM     14  H   UNL     1      31.113  13.326  -6.032  1.00  0.00     0.164 HD
BRANCH  12  15
ATOM     15  C   UNL     1      29.911  15.076  -5.961  1.00  0.00     0.175 C
BRANCH  15  16
ATOM     16  C   UNL     1      31.289  15.784  -6.029  1.00  0.00     0.245 C
ATOM     17  O   UNL     1      32.363  15.194  -5.950  1.00  0.00    -0.272 OA
BRANCH  16  18
ATOM     18  N   UNL     1      31.213  17.176  -6.002  1.00  0.00    -0.335 N
ATOM     19  N   UNL     1      30.239  21.210  -5.404  1.00  0.00    -0.198 NA
ATOM     20  C   UNL     1      30.760  20.252  -5.007  1.00  0.00     0.067 C
ATOM     21  C   UNL     1      31.420  19.037  -4.502  1.00  0.00     0.114 C
ATOM     22  C   UNL     1      32.745  18.777  -5.220  1.00  0.00     0.047 C
ATOM     23  C   UNL     1      30.595  17.788  -4.827  1.00  0.00     0.138 C
ATOM     24  C   UNL     1      32.305  18.022  -6.476  1.00  0.00     0.100 C
ATOM     25  G   UNL     1      33.460  17.352  -7.244  1.00  0.00     0.000 C
ENDBRANCH  16  18
ENDBRANCH  15  16
BRANCH  15  26
ATOM     26  C   UNL     1      29.078  15.368  -7.188  1.00  0.00     0.021 C
ATOM     27  C   UNL     1      28.151  16.559  -7.262  1.00  0.00     0.006 C
ATOM     28  C   UNL     1      27.578  15.170  -7.252  1.00  0.00     0.006 C
ENDBRANCH  15  26
ENDBRANCH  12  15
ENDBRANCH   7  11
BRANCH   1  29
ATOM     29  C   UNL     1      34.443  12.383  -2.557  1.00  0.00     0.027 C
ATOM     30  C   UNL     1      35.268  11.864  -1.370  1.00  0.00     0.016 C
ATOM     31  C   UNL     1      35.886  11.903  -2.724  1.00  0.00     0.016 C
BRANCH  29  32
ATOM     32  C   UNL     1      34.129  13.875  -2.569  1.00  0.00     0.094 C
BRANCH  32  33
ATOM     33  N   UNL     1      32.898  14.277  -1.867  1.00  0.00    -0.314 NA
ATOM     34  H   UNL     1      32.242  13.499  -1.956  1.00  0.00     0.122 HD
BRANCH  33  35
ATOM     35  C   UNL     1      32.252  15.458  -2.470  1.00  0.00     0.106 C
ATOM     36  G   UNL     1      30.873  15.756  -1.852  1.00  0.00     0.000 C
ENDBRANCH  33  35
ENDBRANCH  32  33
ENDBRANCH  29  32
ENDBRANCH   1  29
TORSDOF 1
ENDMDL
