MODEL 1
REMARK VINA RESULT:      -8.2      0.000      0.000
REMARK SMILES N#C[C@@H]1CCN(C(=O)[C@@H]2NC(=O)c3c[nH]c4ncc(nc34)C3(CC3)CSC[C@H]3C[C@@H]32)C1
REMARK SMILES IDX 13 1 14 2 15 3 16 4 17 5 18 6 19 7 20 8 21 9 11 11 10 12
REMARK SMILES IDX 12 13 9 15 7 16 8 17 6 18 1 19 2 20 3 21 4 22 31 23 5 24
REMARK SMILES IDX 30 25 29 26 28 27 22 29 23 30 24 31 25 32 26 33 27 34
REMARK H PARENT 15 10 10 14
REMARK Flexibility Score:  106.900
ROOT
ATOM      1  C   UNL     1      32.884  14.569  -3.088  1.00  0.00     0.085 A
ATOM      2  C   UNL     1      34.140  15.047  -2.738  1.00  0.00     0.100 A
ATOM      3  N   UNL     1      34.983  13.972  -2.562  1.00  0.00    -0.344 N
ATOM      4  C   UNL     1      34.292  12.811  -2.768  1.00  0.00     0.156 A
ATOM      5  N   UNL     1      34.779  11.559  -2.688  1.00  0.00    -0.235 NA
ATOM      6  C   UNL     1      33.794  10.648  -2.953  1.00  0.00     0.138 A
ATOM      7  C   UNL     1      32.448  10.929  -3.255  1.00  0.00     0.067 A
ATOM      8  N   UNL     1      32.035  12.218  -3.315  1.00  0.00    -0.246 NA
ATOM      9  C   UNL     1      32.987  13.154  -3.078  1.00  0.00     0.120 A
ATOM     10  H   UNL     1      35.962  14.011  -2.319  1.00  0.00     0.168 HD
ENDROOT
BRANCH   1  11
ATOM     11  C   UNL     1      31.705  15.364  -3.392  1.00  0.00     0.255 C
ATOM     12  N   UNL     1      31.198  15.139  -4.647  1.00  0.00    -0.340 N
ATOM     13  O   UNL     1      31.211  16.163  -2.601  1.00  0.00    -0.269 OA
ATOM     14  H   UNL     1      31.707  14.517  -5.271  1.00  0.00     0.164 HD
BRANCH  12  15
ATOM     15  C   UNL     1      30.007  15.788  -5.146  1.00  0.00     0.175 C
BRANCH  15  16
ATOM     16  C   UNL     1      30.390  16.639  -6.388  1.00  0.00     0.245 C
ATOM     17  O   UNL     1      29.743  16.586  -7.439  1.00  0.00    -0.272 OA
BRANCH  16  18
ATOM     18  N   UNL     1      31.484  17.477  -6.283  1.00  0.00    -0.340 N
ATOM     19  N   UNL     1      33.537  21.601  -5.362  1.00  0.00    -0.198 NA
ATOM     20  C   UNL     1      33.343  20.459  -5.416  1.00  0.00     0.067 C
ATOM     21  C   UNL     1      33.088  19.022  -5.489  1.00  0.00     0.114 C
ATOM     22  C   UNL     1      33.581  18.398  -6.795  1.00  0.00     0.042 C
ATOM     23  C   UNL     1      31.593  18.706  -5.508  1.00  0.00     0.138 C
ATOM     24  C   UNL     1      32.752  17.126  -6.894  1.00  0.00     0.121 C
ENDBRANCH  16  18
ENDBRANCH  15  16
BRANCH  15  25
ATOM     25  C   UNL     1      28.982  14.700  -5.391  1.00  0.00     0.025 C
ATOM     26  C   UNL     1      28.626  13.647  -4.369  1.00  0.00     0.011 C
ATOM     27  C   UNL     1      27.615  14.714  -4.729  1.00  0.00     0.005 C
ATOM     28  G   UNL     1      26.375  14.348  -5.484  1.00  0.00     0.000 C
ENDBRANCH  15  25
ENDBRANCH  12  15
ENDBRANCH   1  11
BRANCH   7  29
ATOM     29  C   UNL     1      31.378   9.838  -3.497  1.00  0.00     0.023 C
ATOM     30  C   UNL     1      31.186   8.774  -2.418  1.00  0.00     0.015 C
ATOM     31  C   UNL     1      31.799   8.392  -3.732  1.00  0.00     0.015 C
BRANCH  29  32
ATOM     32  C   UNL     1      30.104  10.320  -4.195  1.00  0.00     0.083 C
BRANCH  32  33
ATOM     33  S   UNL     1      29.767   9.331  -5.683  1.00  0.00    -0.161 SA
BRANCH  33  34
ATOM     34  C   UNL     1      27.989   9.033  -5.454  1.00  0.00     0.073 C
ATOM     35  G   UNL     1      27.708   7.573  -5.631  1.00  0.00     0.000 C
ENDBRANCH  33  34
ENDBRANCH  32  33
ENDBRANCH  29  32
ENDBRANCH   7  29
TORSDOF 2
ENDMDL
MODEL 2
REMARK VINA RESULT:      -8.2      0.694      1.078
REMARK SMILES N#C[C@@H]1CCN(C(=O)[C@@H]2NC(=O)c3c[nH]c4ncc(nc34)C3(CC3)CSC[C@H]3C[C@@H]32)C1
REMARK SMILES IDX 13 1 14 2 15 3 16 4 17 5 18 6 19 7 20 8 21 9 11 11 10 12
REMARK SMILES IDX 12 13 9 15 7 16 8 17 6 18 1 19 2 20 3 21 4 22 31 23 5 24
REMARK SMILES IDX 30 25 29 26 28 27 22 29 23 30 24 31 25 32 26 33 27 34
REMARK H PARENT 15 10 10 14
REMARK Flexibility Score:  106.900
ROOT
ATOM      1  C   UNL     1      33.105  14.706  -2.974  1.00  0.00     0.085 A
ATOM      2  C   UNL     1      34.343  15.257  -2.672  1.00  0.00     0.100 A
ATOM      3  N   UNL     1      35.252  14.233  -2.524  1.00  0.00    -0.344 N
ATOM      4  C   UNL     1      34.622  13.033  -2.702  1.00  0.00     0.156 A
ATOM      5  N   UNL     1      35.183  11.811  -2.635  1.00  0.00    -0.235 NA
ATOM      6  C   UNL     1      34.243  10.845  -2.862  1.00  0.00     0.138 A
ATOM      7  C   UNL     1      32.872  11.047  -3.114  1.00  0.00     0.067 A
ATOM      8  N   UNL     1      32.384  12.309  -3.163  1.00  0.00    -0.246 NA
ATOM      9  C   UNL     1      33.289  13.299  -2.964  1.00  0.00     0.120 A
ATOM     10  H   UNL     1      36.235  14.329  -2.317  1.00  0.00     0.168 HD
ENDROOT
BRANCH   1  11
ATOM     11  C   UNL     1      31.872  15.431  -3.237  1.00  0.00     0.255 C
ATOM     12  N   UNL     1      31.324  15.158  -4.464  1.00  0.00    -0.340 N
ATOM     13  O   UNL     1      31.369  16.214  -2.436  1.00  0.00    -0.269 OA
ATOM     14  H   UNL     1      31.838  14.554  -5.102  1.00  0.00     0.164 HD
BRANCH  12  15
ATOM     15  C   UNL     1      30.078  15.732  -4.919  1.00  0.00     0.175 C
BRANCH  15  16
ATOM     16  C   UNL     1      30.387  16.754  -6.049  1.00  0.00     0.245 C
ATOM     17  O   UNL     1      30.171  16.497  -7.237  1.00  0.00    -0.272 OA
BRANCH  16  18
ATOM     18  N   UNL     1      30.909  17.981  -5.683  1.00  0.00    -0.340 N
ATOM     19  N   UNL     1      34.371  21.140  -5.364  1.00  0.00    -0.198 NA
ATOM     20  C   UNL     1      33.319  20.675  -5.516  1.00  0.00     0.067 C
ATOM     21  C   UNL     1      31.999  20.078  -5.707  1.00  0.00     0.114 C
ATOM     22  C   UNL     1      31.225  19.918  -4.397  1.00  0.00     0.042 C
ATOM     23  C   UNL     1      32.088  18.643  -6.223  1.00  0.00     0.138 C
ATOM     24  C   UNL     1      30.216  18.832  -4.734  1.00  0.00     0.121 C
ENDBRANCH  16  18
ENDBRANCH  15  16
BRANCH  15  25
ATOM     25  C   UNL     1      29.177  14.579  -5.311  1.00  0.00     0.025 C
ATOM     26  C   UNL     1      28.925  13.383  -4.425  1.00  0.00     0.011 C
ATOM     27  C   UNL     1      27.810  14.373  -4.682  1.00  0.00     0.005 C
ATOM     28  G   UNL     1      26.624  13.970  -5.501  1.00  0.00     0.000 C
ENDBRANCH  15  25
ENDBRANCH  12  15
ENDBRANCH   1  11
BRANCH   7  29
ATOM     29  C   UNL     1      31.858   9.895  -3.314  1.00  0.00     0.023 C
ATOM     30  C   UNL     1      31.531   9.015  -2.108  1.00  0.00     0.015 C
ATOM     31  C   UNL     1      32.325   8.445  -3.246  1.00  0.00     0.015 C
BRANCH  29  32
ATOM     32  C   UNL     1      30.688  10.213  -4.247  1.00  0.00     0.083 C
BRANCH  32  33
ATOM     33  S   UNL     1      30.119   8.714  -5.106  1.00  0.00    -0.161 SA
BRANCH  33  34
ATOM     34  C   UNL     1      28.433   9.234  -5.540  1.00  0.00     0.073 C
ATOM     35  G   UNL     1      27.729   8.103  -6.223  1.00  0.00     0.000 C
ENDBRANCH  33  34
ENDBRANCH  32  33
ENDBRANCH  29  32
ENDBRANCH   7  29
TORSDOF 2
ENDMDL
MODEL 3
REMARK VINA RESULT:      -7.9      2.940      8.455
REMARK SMILES N#C[C@@H]1CCN(C(=O)[C@@H]2NC(=O)c3c[nH]c4ncc(nc34)C3(CC3)CSC[C@H]3C[C@@H]32)C1
REMARK SMILES IDX 13 1 14 2 15 3 16 4 17 5 18 6 19 7 20 8 21 9 11 11 10 12
REMARK SMILES IDX 12 13 9 15 7 16 8 17 6 18 1 19 2 20 3 21 4 22 31 23 5 24
REMARK SMILES IDX 30 25 29 26 28 27 22 29 23 30 24 31 25 32 26 33 27 34
REMARK H PARENT 15 10 10 14
REMARK Flexibility Score:  106.900
ROOT
ATOM      1  C   UNL     1      28.358  17.813  -6.593  1.00  0.00     0.085 A
ATOM      2  C   UNL     1      27.039  18.108  -6.910  1.00  0.00     0.100 A
ATOM      3  N   UNL     1      26.890  19.477  -6.928  1.00  0.00    -0.344 N
ATOM      4  C   UNL     1      28.079  20.070  -6.607  1.00  0.00     0.156 A
ATOM      5  N   UNL     1      28.324  21.391  -6.525  1.00  0.00    -0.235 NA
ATOM      6  C   UNL     1      29.627  21.612  -6.174  1.00  0.00     0.138 A
ATOM      7  C   UNL     1      30.604  20.633  -5.909  1.00  0.00     0.067 A
ATOM      8  N   UNL     1      30.278  19.323  -6.012  1.00  0.00    -0.246 NA
ATOM      9  C   UNL     1      28.999  19.061  -6.378  1.00  0.00     0.120 A
ATOM     10  H   UNL     1      26.046  19.986  -7.142  1.00  0.00     0.168 HD
ENDROOT
BRANCH   1  11
ATOM     11  C   UNL     1      28.953  16.489  -6.493  1.00  0.00     0.255 C
ATOM     12  N   UNL     1      29.198  16.092  -5.203  1.00  0.00    -0.340 N
ATOM     13  O   UNL     1      29.213  15.793  -7.471  1.00  0.00    -0.269 OA
ATOM     14  H   UNL     1      29.024  16.754  -4.450  1.00  0.00     0.164 HD
BRANCH  12  15
ATOM     15  C   UNL     1      29.745  14.798  -4.865  1.00  0.00     0.175 C
BRANCH  15  16
ATOM     16  C   UNL     1      30.745  14.974  -3.689  1.00  0.00     0.245 C
ATOM     17  O   UNL     1      30.667  15.924  -2.904  1.00  0.00    -0.272 OA
BRANCH  16  18
ATOM     18  N   UNL     1      31.734  14.021  -3.535  1.00  0.00    -0.340 N
ATOM     19  N   UNL     1      33.263   9.660  -2.687  1.00  0.00    -0.198 NA
ATOM     20  C   UNL     1      33.168  10.721  -3.148  1.00  0.00     0.067 C
ATOM     21  C   UNL     1      33.039  12.059  -3.721  1.00  0.00     0.114 C
ATOM     22  C   UNL     1      33.816  13.117  -2.937  1.00  0.00     0.042 C
ATOM     23  C   UNL     1      31.603  12.575  -3.653  1.00  0.00     0.138 C
ATOM     24  C   UNL     1      33.118  14.409  -3.334  1.00  0.00     0.121 C
ENDBRANCH  16  18
ENDBRANCH  15  16
BRANCH  15  25
ATOM     25  C   UNL     1      28.571  13.880  -4.592  1.00  0.00     0.025 C
ATOM     26  C   UNL     1      27.207  14.068  -5.209  1.00  0.00     0.011 C
ATOM     27  C   UNL     1      28.061  12.892  -5.627  1.00  0.00     0.005 C
ATOM     28  G   UNL     1      27.658  11.500  -5.249  1.00  0.00     0.000 C
ENDBRANCH  15  25
ENDBRANCH  12  15
ENDBRANCH   1  11
BRANCH   7  29
ATOM     29  C   UNL     1      32.050  20.963  -5.468  1.00  0.00     0.023 C
ATOM     30  C   UNL     1      32.251  22.111  -4.481  1.00  0.00     0.015 C
ATOM     31  C   UNL     1      32.702  22.271  -5.902  1.00  0.00     0.015 C
BRANCH  29  32
ATOM     32  C   UNL     1      32.965  19.750  -5.281  1.00  0.00     0.083 C
BRANCH  32  33
ATOM     33  S   UNL     1      34.018  19.502  -6.743  1.00  0.00    -0.161 SA
BRANCH  33  34
ATOM     34  C   UNL     1      33.712  17.736  -7.042  1.00  0.00     0.073 C
ATOM     35  G   UNL     1      32.990  17.156  -5.866  1.00  0.00     0.000 C
ENDBRANCH  33  34
ENDBRANCH  32  33
ENDBRANCH  29  32
ENDBRANCH   7  29
TORSDOF 2
ENDMDL
MODEL 4
REMARK VINA RESULT:      -7.9      2.357      4.226
REMARK SMILES N#C[C@@H]1CCN(C(=O)[C@@H]2NC(=O)c3c[nH]c4ncc(nc34)C3(CC3)CSC[C@H]3C[C@@H]32)C1
REMARK SMILES IDX 13 1 14 2 15 3 16 4 17 5 18 6 19 7 20 8 21 9 11 11 10 12
REMARK SMILES IDX 12 13 9 15 7 16 8 17 6 18 1 19 2 20 3 21 4 22 31 23 5 24
REMARK SMILES IDX 30 25 29 26 28 27 22 29 23 30 24 31 25 32 26 33 27 34
REMARK H PARENT 15 10 10 14
REMARK Flexibility Score:  106.900
ROOT
ATOM      1  C   UNL     1      29.365  11.577  -4.762  1.00  0.00     0.085 A
ATOM      2  C   UNL     1      28.358  10.849  -5.383  1.00  0.00     0.100 A
ATOM      3  N   UNL     1      28.679   9.512  -5.310  1.00  0.00    -0.344 N
ATOM      4  C   UNL     1      29.882   9.364  -4.676  1.00  0.00     0.156 A
ATOM      5  N   UNL     1      30.519   8.207  -4.419  1.00  0.00    -0.235 NA
ATOM      6  C   UNL     1      31.700   8.449  -3.774  1.00  0.00     0.138 A
ATOM      7  C   UNL     1      32.225   9.708  -3.425  1.00  0.00     0.067 A
ATOM      8  N   UNL     1      31.522  10.828  -3.721  1.00  0.00    -0.246 NA
ATOM      9  C   UNL     1      30.334  10.630  -4.343  1.00  0.00     0.120 A
ATOM     10  H   UNL     1      28.129   8.742  -5.662  1.00  0.00     0.168 HD
ENDROOT
BRANCH   1  11
ATOM     11  C   UNL     1      29.412  13.020  -4.590  1.00  0.00     0.255 C
ATOM     12  N   UNL     1      29.731  13.702  -5.737  1.00  0.00    -0.340 N
ATOM     13  O   UNL     1      29.189  13.577  -3.518  1.00  0.00    -0.269 OA
ATOM     14  H   UNL     1      29.975  13.166  -6.568  1.00  0.00     0.164 HD
BRANCH  12  15
ATOM     15  C   UNL     1      29.794  15.144  -5.808  1.00  0.00     0.175 C
BRANCH  15  16
ATOM     16  C   UNL     1      31.283  15.569  -5.933  1.00  0.00     0.245 C
ATOM     17  O   UNL     1      32.180  14.749  -6.151  1.00  0.00    -0.272 OA
BRANCH  16  18
ATOM     18  N   UNL     1      31.583  16.913  -5.798  1.00  0.00    -0.340 N
ATOM     19  N   UNL     1      30.680  21.287  -4.344  1.00  0.00    -0.198 NA
ATOM     20  C   UNL     1      31.251  20.310  -4.596  1.00  0.00     0.067 C
ATOM     21  C   UNL     1      31.961  19.073  -4.918  1.00  0.00     0.114 C
ATOM     22  C   UNL     1      32.436  19.023  -6.370  1.00  0.00     0.042 C
ATOM     23  C   UNL     1      31.052  17.849  -4.817  1.00  0.00     0.138 C
ATOM     24  C   UNL     1      32.610  17.532  -6.615  1.00  0.00     0.121 C
ENDBRANCH  16  18
ENDBRANCH  15  16
BRANCH  15  25
ATOM     25  C   UNL     1      28.896  15.568  -6.952  1.00  0.00     0.025 C
ATOM     26  C   UNL     1      27.538  14.963  -7.212  1.00  0.00     0.011 C
ATOM     27  C   UNL     1      27.641  16.394  -6.730  1.00  0.00     0.005 C
ATOM     28  G   UNL     1      27.273  17.522  -7.643  1.00  0.00     0.000 C
ENDBRANCH  15  25
ENDBRANCH  12  15
ENDBRANCH   1  11
BRANCH   7  29
ATOM     29  C   UNL     1      33.597   9.905  -2.736  1.00  0.00     0.023 C
ATOM     30  C   UNL     1      34.365   8.656  -2.307  1.00  0.00     0.015 C
ATOM     31  C   UNL     1      33.771   9.553  -1.263  1.00  0.00     0.015 C
BRANCH  29  32
ATOM     32  C   UNL     1      34.443  11.054  -3.288  1.00  0.00     0.083 C
BRANCH  32  33
ATOM     33  S   UNL     1      34.497  12.441  -2.112  1.00  0.00    -0.161 SA
BRANCH  33  34
ATOM     34  C   UNL     1      33.233  13.517  -2.852  1.00  0.00     0.073 C
ATOM     35  G   UNL     1      33.784  14.902  -2.988  1.00  0.00     0.000 C
ENDBRANCH  33  34
ENDBRANCH  32  33
ENDBRANCH  29  32
ENDBRANCH   7  29
TORSDOF 2
ENDMDL
MODEL 5
REMARK VINA RESULT:      -7.9      2.902      8.529
REMARK SMILES N#C[C@@H]1CCN(C(=O)[C@@H]2NC(=O)c3c[nH]c4ncc(nc34)C3(CC3)CSC[C@H]3C[C@@H]32)C1
REMARK SMILES IDX 13 1 14 2 15 3 16 4 17 5 18 6 19 7 20 8 21 9 11 11 10 12
REMARK SMILES IDX 12 13 9 15 7 16 8 17 6 18 1 19 2 20 3 21 4 22 31 23 5 24
REMARK SMILES IDX 30 25 29 26 28 27 22 29 23 30 24 31 25 32 26 33 27 34
REMARK H PARENT 15 10 10 14
REMARK Flexibility Score:  106.900
ROOT
ATOM      1  C   UNL     1      28.018  15.952  -5.723  1.00  0.00     0.085 A
ATOM      2  C   UNL     1      26.811  15.878  -6.407  1.00  0.00     0.100 A
ATOM      3  N   UNL     1      26.604  17.075  -7.055  1.00  0.00    -0.344 N
ATOM      4  C   UNL     1      27.639  17.927  -6.787  1.00  0.00     0.156 A
ATOM      5  N   UNL     1      27.787  19.184  -7.245  1.00  0.00    -0.235 NA
ATOM      6  C   UNL     1      28.943  19.732  -6.763  1.00  0.00     0.138 A
ATOM      7  C   UNL     1      29.868  19.117  -5.897  1.00  0.00     0.067 A
ATOM      8  N   UNL     1      29.646  17.848  -5.478  1.00  0.00    -0.246 NA
ATOM      9  C   UNL     1      28.518  17.261  -5.951  1.00  0.00     0.120 A
ATOM     10  H   UNL     1      25.818  17.310  -7.643  1.00  0.00     0.168 HD
ENDROOT
BRANCH   1  11
ATOM     11  C   UNL     1      28.633  14.900  -4.930  1.00  0.00     0.255 C
ATOM     12  N   UNL     1      29.985  15.061  -4.755  1.00  0.00    -0.340 N
ATOM     13  O   UNL     1      28.004  13.956  -4.461  1.00  0.00    -0.269 OA
ATOM     14  H   UNL     1      30.448  15.829  -5.236  1.00  0.00     0.164 HD
BRANCH  12  15
ATOM     15  C   UNL     1      30.793  14.159  -3.967  1.00  0.00     0.175 C
BRANCH  15  16
ATOM     16  C   UNL     1      31.359  13.055  -4.901  1.00  0.00     0.245 C
ATOM     17  O   UNL     1      31.702  13.297  -6.063  1.00  0.00    -0.272 OA
BRANCH  16  18
ATOM     18  N   UNL     1      31.480  11.777  -4.389  1.00  0.00    -0.340 N
ATOM     19  N   UNL     1      33.831   8.325  -2.238  1.00  0.00    -0.198 NA
ATOM     20  C   UNL     1      32.970   9.034  -2.557  1.00  0.00     0.067 C
ATOM     21  C   UNL     1      31.895   9.935  -2.967  1.00  0.00     0.114 C
ATOM     22  C   UNL     1      31.167   9.457  -4.223  1.00  0.00     0.042 C
ATOM     23  C   UNL     1      32.424  11.306  -3.384  1.00  0.00     0.138 C
ATOM     24  C   UNL     1      30.538  10.736  -4.754  1.00  0.00     0.121 C
ENDBRANCH  16  18
ENDBRANCH  15  16
BRANCH  15  25
ATOM     25  C   UNL     1      31.828  15.004  -3.252  1.00  0.00     0.025 C
ATOM     26  C   UNL     1      32.006  15.010  -1.753  1.00  0.00     0.011 C
ATOM     27  C   UNL     1      33.076  14.400  -2.633  1.00  0.00     0.005 C
ATOM     28  G   UNL     1      34.412  15.063  -2.758  1.00  0.00     0.000 C
ENDBRANCH  15  25
ENDBRANCH  12  15
ENDBRANCH   1  11
BRANCH   7  29
ATOM     29  C   UNL     1      31.134  19.822  -5.354  1.00  0.00     0.023 C
ATOM     30  C   UNL     1      30.948  20.910  -4.299  1.00  0.00     0.015 C
ATOM     31  C   UNL     1      31.391  21.289  -5.680  1.00  0.00     0.015 C
BRANCH  29  32
ATOM     32  C   UNL     1      32.355  18.918  -5.175  1.00  0.00     0.083 C
BRANCH  32  33
ATOM     33  S   UNL     1      33.586  19.225  -6.478  1.00  0.00    -0.161 SA
BRANCH  33  34
ATOM     34  C   UNL     1      33.640  17.577  -7.241  1.00  0.00     0.073 C
ATOM     35  G   UNL     1      32.778  16.641  -6.452  1.00  0.00     0.000 C
ENDBRANCH  33  34
ENDBRANCH  32  33
ENDBRANCH  29  32
ENDBRANCH   7  29
TORSDOF 2
ENDMDL
MODEL 6
REMARK VINA RESULT:      -7.8      1.896      2.594
REMARK SMILES N#C[C@@H]1CCN(C(=O)[C@@H]2NC(=O)c3c[nH]c4ncc(nc34)C3(CC3)CSC[C@H]3C[C@@H]32)C1
REMARK SMILES IDX 13 1 14 2 15 3 16 4 17 5 18 6 19 7 20 8 21 9 11 11 10 12
REMARK SMILES IDX 12 13 9 15 7 16 8 17 6 18 1 19 2 20 3 21 4 22 31 23 5 24
REMARK SMILES IDX 30 25 29 26 28 27 22 29 23 30 24 31 25 32 26 33 27 34
REMARK H PARENT 15 10 10 14
REMARK Flexibility Score:  106.900
ROOT
ATOM      1  C   UNL     1      33.258  14.725  -3.008  1.00  0.00     0.085 A
ATOM      2  C   UNL     1      34.446  15.377  -2.701  1.00  0.00     0.100 A
ATOM      3  N   UNL     1      35.409  14.428  -2.438  1.00  0.00    -0.344 N
ATOM      4  C   UNL     1      34.863  13.180  -2.548  1.00  0.00     0.156 A
ATOM      5  N   UNL     1      35.495  12.005  -2.365  1.00  0.00    -0.235 NA
ATOM      6  C   UNL     1      34.628  10.965  -2.554  1.00  0.00     0.138 A
ATOM      7  C   UNL     1      33.261  11.058  -2.875  1.00  0.00     0.067 A
ATOM      8  N   UNL     1      32.697  12.278  -3.040  1.00  0.00    -0.246 NA
ATOM      9  C   UNL     1      33.529  13.338  -2.882  1.00  0.00     0.120 A
ATOM     10  H   UNL     1      36.374  14.603  -2.201  1.00  0.00     0.168 HD
ENDROOT
BRANCH   1  11
ATOM     11  C   UNL     1      31.996  15.346  -3.374  1.00  0.00     0.255 C
ATOM     12  N   UNL     1      31.646  15.150  -4.686  1.00  0.00    -0.340 N
ATOM     13  O   UNL     1      31.307  15.987  -2.585  1.00  0.00    -0.269 OA
ATOM     14  H   UNL     1      32.303  14.671  -5.297  1.00  0.00     0.164 HD
BRANCH  12  15
ATOM     15  C   UNL     1      30.412  15.641  -5.257  1.00  0.00     0.175 C
BRANCH  15  16
ATOM     16  C   UNL     1      30.749  16.781  -6.258  1.00  0.00     0.245 C
ATOM     17  O   UNL     1      31.765  16.753  -6.959  1.00  0.00    -0.272 OA
BRANCH  16  18
ATOM     18  N   UNL     1      29.864  17.839  -6.352  1.00  0.00    -0.340 N
ATOM     19  N   UNL     1      25.791  19.800  -7.631  1.00  0.00    -0.198 NA
ATOM     20  C   UNL     1      26.735  19.534  -7.012  1.00  0.00     0.067 C
ATOM     21  C   UNL     1      27.928  19.191  -6.241  1.00  0.00     0.114 C
ATOM     22  C   UNL     1      29.136  20.056  -6.601  1.00  0.00     0.042 C
ATOM     23  C   UNL     1      28.422  17.777  -6.548  1.00  0.00     0.138 C
ATOM     24  C   UNL     1      30.309  19.203  -6.141  1.00  0.00     0.121 C
ENDBRANCH  16  18
ENDBRANCH  15  16
BRANCH  15  25
ATOM     25  C   UNL     1      29.692  14.446  -5.847  1.00  0.00     0.025 C
ATOM     26  C   UNL     1      29.456  13.161  -5.090  1.00  0.00     0.011 C
ATOM     27  C   UNL     1      28.286  14.060  -5.423  1.00  0.00     0.005 C
ATOM     28  G   UNL     1      27.260  13.619  -6.420  1.00  0.00     0.000 C
ENDBRANCH  15  25
ENDBRANCH  12  15
ENDBRANCH   1  11
BRANCH   7  29
ATOM     29  C   UNL     1      32.330   9.830  -3.025  1.00  0.00     0.023 C
ATOM     30  C   UNL     1      32.010   9.019  -1.771  1.00  0.00     0.015 C
ATOM     31  C   UNL     1      32.884   8.423  -2.833  1.00  0.00     0.015 C
BRANCH  29  32
ATOM     32  C   UNL     1      31.181  10.004  -4.021  1.00  0.00     0.083 C
BRANCH  32  33
ATOM     33  S   UNL     1      30.643   8.394  -4.675  1.00  0.00    -0.161 SA
BRANCH  33  34
ATOM     34  C   UNL     1      29.431   8.956  -5.907  1.00  0.00     0.073 C
ATOM     35  G   UNL     1      28.343   9.717  -5.215  1.00  0.00     0.000 C
ENDBRANCH  33  34
ENDBRANCH  32  33
ENDBRANCH  29  32
ENDBRANCH   7  29
TORSDOF 2
ENDMDL
MODEL 7
REMARK VINA RESULT:      -7.7      2.041      2.638
REMARK SMILES N#C[C@@H]1CCN(C(=O)[C@@H]2NC(=O)c3c[nH]c4ncc(nc34)C3(CC3)CSC[C@H]3C[C@@H]32)C1
REMARK SMILES IDX 13 1 14 2 15 3 16 4 17 5 18 6 19 7 20 8 21 9 11 11 10 12
REMARK SMILES IDX 12 13 9 15 7 16 8 17 6 18 1 19 2 20 3 21 4 22 31 23 5 24
REMARK SMILES IDX 30 25 29 26 28 27 22 29 23 30 24 31 25 32 26 33 27 34
REMARK H PARENT 15 10 10 14
REMARK Flexibility Score:  106.900
ROOT
ATOM      1  C   UNL     1      33.087  14.753  -3.056  1.00  0.00     0.085 A
ATOM      2  C   UNL     1      34.248  15.479  -2.823  1.00  0.00     0.100 A
ATOM      3  N   UNL     1      35.276  14.592  -2.588  1.00  0.00    -0.344 N
ATOM      4  C   UNL     1      34.798  13.313  -2.643  1.00  0.00     0.156 A
ATOM      5  N   UNL     1      35.505  12.181  -2.467  1.00  0.00    -0.235 NA
ATOM      6  C   UNL     1      34.691  11.089  -2.589  1.00  0.00     0.138 A
ATOM      7  C   UNL     1      33.306  11.097  -2.843  1.00  0.00     0.067 A
ATOM      8  N   UNL     1      32.666  12.279  -3.007  1.00  0.00    -0.246 NA
ATOM      9  C   UNL     1      33.442  13.387  -2.914  1.00  0.00     0.120 A
ATOM     10  H   UNL     1      36.240  14.827  -2.403  1.00  0.00     0.168 HD
ENDROOT
BRANCH   1  11
ATOM     11  C   UNL     1      31.774  15.293  -3.372  1.00  0.00     0.255 C
ATOM     12  N   UNL     1      31.337  14.975  -4.633  1.00  0.00    -0.340 N
ATOM     13  O   UNL     1      31.118  15.971  -2.586  1.00  0.00    -0.269 OA
ATOM     14  H   UNL     1      31.968  14.472  -5.253  1.00  0.00     0.164 HD
BRANCH  12  15
ATOM     15  C   UNL     1      30.044  15.369  -5.145  1.00  0.00     0.175 C
BRANCH  15  16
ATOM     16  C   UNL     1      30.251  16.481  -6.211  1.00  0.00     0.245 C
ATOM     17  O   UNL     1      31.336  16.649  -6.775  1.00  0.00    -0.272 OA
BRANCH  16  18
ATOM     18  N   UNL     1      29.169  17.284  -6.523  1.00  0.00    -0.340 N
ATOM     19  N   UNL     1      26.719  21.287  -6.319  1.00  0.00    -0.198 NA
ATOM     20  C   UNL     1      27.202  20.314  -6.727  1.00  0.00     0.067 C
ATOM     21  C   UNL     1      27.815  19.086  -7.231  1.00  0.00     0.114 C
ATOM     22  C   UNL     1      26.943  17.851  -7.002  1.00  0.00     0.042 C
ATOM     23  C   UNL     1      29.099  18.738  -6.479  1.00  0.00     0.138 C
ATOM     24  C   UNL     1      27.951  16.713  -7.065  1.00  0.00     0.121 C
ENDBRANCH  16  18
ENDBRANCH  15  16
BRANCH  15  25
ATOM     25  C   UNL     1      29.362  14.110  -5.638  1.00  0.00     0.025 C
ATOM     26  C   UNL     1      29.279  12.838  -4.830  1.00  0.00     0.011 C
ATOM     27  C   UNL     1      28.025  13.646  -5.086  1.00  0.00     0.005 C
ATOM     28  G   UNL     1      26.954  13.105  -5.981  1.00  0.00     0.000 C
ENDBRANCH  15  25
ENDBRANCH  12  15
ENDBRANCH   1  11
BRANCH   7  29
ATOM     29  C   UNL     1      32.441   9.815  -2.920  1.00  0.00     0.023 C
ATOM     30  C   UNL     1      32.243   9.011  -1.637  1.00  0.00     0.015 C
ATOM     31  C   UNL     1      33.086   8.446  -2.740  1.00  0.00     0.015 C
BRANCH  29  32
ATOM     32  C   UNL     1      31.228   9.904  -3.849  1.00  0.00     0.083 C
BRANCH  32  33
ATOM     33  S   UNL     1      30.729   8.252  -4.421  1.00  0.00    -0.161 SA
BRANCH  33  34
ATOM     34  C   UNL     1      29.664   8.722  -5.817  1.00  0.00     0.073 C
ATOM     35  G   UNL     1      28.393   9.312  -5.288  1.00  0.00     0.000 C
ENDBRANCH  33  34
ENDBRANCH  32  33
ENDBRANCH  29  32
ENDBRANCH   7  29
TORSDOF 2
ENDMDL
MODEL 8
REMARK VINA RESULT:      -7.6      1.240      1.521
REMARK SMILES N#C[C@@H]1CCN(C(=O)[C@@H]2NC(=O)c3c[nH]c4ncc(nc34)C3(CC3)CSC[C@H]3C[C@@H]32)C1
REMARK SMILES IDX 13 1 14 2 15 3 16 4 17 5 18 6 19 7 20 8 21 9 11 11 10 12
REMARK SMILES IDX 12 13 9 15 7 16 8 17 6 18 1 19 2 20 3 21 4 22 31 23 5 24
REMARK SMILES IDX 30 25 29 26 28 27 22 29 23 30 24 31 25 32 26 33 27 34
REMARK H PARENT 15 10 10 14
REMARK Flexibility Score:  106.900
ROOT
ATOM      1  C   UNL     1      33.791  13.994  -3.045  1.00  0.00     0.085 A
ATOM      2  C   UNL     1      35.089  14.224  -2.607  1.00  0.00     0.100 A
ATOM      3  N   UNL     1      35.682  13.010  -2.344  1.00  0.00    -0.344 N
ATOM      4  C   UNL     1      34.788  12.003  -2.581  1.00  0.00     0.156 A
ATOM      5  N   UNL     1      35.005  10.683  -2.436  1.00  0.00    -0.235 NA
ATOM      6  C   UNL     1      33.879   9.978  -2.760  1.00  0.00     0.138 A
ATOM      7  C   UNL     1      32.643  10.512  -3.172  1.00  0.00     0.067 A
ATOM      8  N   UNL     1      32.504  11.854  -3.291  1.00  0.00    -0.246 NA
ATOM      9  C   UNL     1      33.605  12.588  -2.999  1.00  0.00     0.120 A
ATOM     10  H   UNL     1      36.628  12.860  -2.025  1.00  0.00     0.168 HD
ENDROOT
BRANCH   1  11
ATOM     11  C   UNL     1      32.823  14.998  -3.457  1.00  0.00     0.255 C
ATOM     12  N   UNL     1      32.216  14.718  -4.655  1.00  0.00    -0.340 N
ATOM     13  O   UNL     1      32.571  16.001  -2.795  1.00  0.00    -0.269 OA
ATOM     14  H   UNL     1      32.531  13.905  -5.181  1.00  0.00     0.164 HD
BRANCH  12  15
ATOM     15  C   UNL     1      31.191  15.555  -5.236  1.00  0.00     0.175 C
BRANCH  15  16
ATOM     16  C   UNL     1      31.875  16.638  -6.117  1.00  0.00     0.245 C
ATOM     17  O   UNL     1      32.722  16.347  -6.967  1.00  0.00    -0.272 OA
BRANCH  16  18
ATOM     18  N   UNL     1      31.499  17.955  -5.927  1.00  0.00    -0.340 N
ATOM     19  N   UNL     1      32.077  22.269  -4.162  1.00  0.00    -0.198 NA
ATOM     20  C   UNL     1      31.816  21.408  -4.894  1.00  0.00     0.067 C
ATOM     21  C   UNL     1      31.492  20.315  -5.808  1.00  0.00     0.114 C
ATOM     22  C   UNL     1      30.068  19.790  -5.623  1.00  0.00     0.042 C
ATOM     23  C   UNL     1      32.346  19.076  -5.544  1.00  0.00     0.138 C
ATOM     24  C   UNL     1      30.146  18.392  -6.217  1.00  0.00     0.121 C
ENDBRANCH  16  18
ENDBRANCH  15  16
BRANCH  15  25
ATOM     25  C   UNL     1      30.230  14.635  -5.962  1.00  0.00     0.025 C
ATOM     26  C   UNL     1      29.307  13.673  -5.255  1.00  0.00     0.011 C
ATOM     27  C   UNL     1      28.731  14.877  -5.967  1.00  0.00     0.005 C
ATOM     28  G   UNL     1      27.912  14.694  -7.208  1.00  0.00     0.000 C
ENDBRANCH  15  25
ENDBRANCH  12  15
ENDBRANCH   1  11
BRANCH   7  29
ATOM     29  C   UNL     1      31.395   9.648  -3.476  1.00  0.00     0.023 C
ATOM     30  C   UNL     1      31.001   8.580  -2.457  1.00  0.00     0.015 C
ATOM     31  C   UNL     1      31.550   8.165  -3.790  1.00  0.00     0.015 C
BRANCH  29  32
ATOM     32  C   UNL     1      30.238  10.391  -4.147  1.00  0.00     0.083 C
BRANCH  32  33
ATOM     33  S   UNL     1      29.582   9.437  -5.549  1.00  0.00    -0.161 SA
BRANCH  33  34
ATOM     34  C   UNL     1      27.811   9.794  -5.359  1.00  0.00     0.073 C
ATOM     35  G   UNL     1      27.034   8.522  -5.501  1.00  0.00     0.000 C
ENDBRANCH  33  34
ENDBRANCH  32  33
ENDBRANCH  29  32
ENDBRANCH   7  29
TORSDOF 2
ENDMDL
MODEL 9
REMARK VINA RESULT:      -7.6      3.308      8.057
REMARK SMILES N#C[C@@H]1CCN(C(=O)[C@@H]2NC(=O)c3c[nH]c4ncc(nc34)C3(CC3)CSC[C@H]3C[C@@H]32)C1
REMARK SMILES IDX 13 1 14 2 15 3 16 4 17 5 18 6 19 7 20 8 21 9 11 11 10 12
REMARK SMILES IDX 12 13 9 15 7 16 8 17 6 18 1 19 2 20 3 21 4 22 31 23 5 24
REMARK SMILES IDX 30 25 29 26 28 27 22 29 23 30 24 31 25 32 26 33 27 34
REMARK H PARENT 15 10 10 14
REMARK Flexibility Score:  106.900
ROOT
ATOM      1  C   UNL     1      31.918  17.674  -5.950  1.00  0.00     0.085 A
ATOM      2  C   UNL     1      32.817  18.732  -5.943  1.00  0.00     0.100 A
ATOM      3  N   UNL     1      32.113  19.904  -6.112  1.00  0.00    -0.344 N
ATOM      4  C   UNL     1      30.782  19.621  -6.250  1.00  0.00     0.156 A
ATOM      5  N   UNL     1      29.786  20.508  -6.432  1.00  0.00    -0.235 NA
ATOM      6  C   UNL     1      28.586  19.859  -6.534  1.00  0.00     0.138 A
ATOM      7  C   UNL     1      28.375  18.468  -6.482  1.00  0.00     0.067 A
ATOM      8  N   UNL     1      29.432  17.641  -6.298  1.00  0.00    -0.246 NA
ATOM      9  C   UNL     1      30.639  18.247  -6.171  1.00  0.00     0.120 A
ATOM     10  H   UNL     1      32.496  20.837  -6.133  1.00  0.00     0.168 HD
ENDROOT
BRANCH   1  11
ATOM     11  C   UNL     1      32.234  16.265  -5.775  1.00  0.00     0.255 C
ATOM     12  N   UNL     1      31.644  15.702  -4.672  1.00  0.00    -0.340 N
ATOM     13  O   UNL     1      32.960  15.638  -6.541  1.00  0.00    -0.269 OA
ATOM     14  H   UNL     1      31.115  16.303  -4.044  1.00  0.00     0.164 HD
BRANCH  12  15
ATOM     15  C   UNL     1      31.784  14.306  -4.327  1.00  0.00     0.175 C
BRANCH  15  16
ATOM     16  C   UNL     1      32.553  14.203  -2.980  1.00  0.00     0.245 C
ATOM     17  O   UNL     1      32.437  15.057  -2.096  1.00  0.00    -0.272 OA
BRANCH  16  18
ATOM     18  N   UNL     1      33.378  13.109  -2.791  1.00  0.00    -0.340 N
ATOM     19  N   UNL     1      34.187   8.578  -1.853  1.00  0.00    -0.198 NA
ATOM     20  C   UNL     1      34.270   9.633  -2.329  1.00  0.00     0.067 C
ATOM     21  C   UNL     1      34.365  10.965  -2.921  1.00  0.00     0.114 C
ATOM     22  C   UNL     1      35.279  11.902  -2.131  1.00  0.00     0.042 C
ATOM     23  C   UNL     1      33.025  11.700  -2.895  1.00  0.00     0.138 C
ATOM     24  C   UNL     1      34.800  13.280  -2.561  1.00  0.00     0.121 C
ENDBRANCH  16  18
ENDBRANCH  15  16
BRANCH  15  25
ATOM     25  C   UNL     1      30.392  13.708  -4.331  1.00  0.00     0.025 C
ATOM     26  C   UNL     1      29.465  13.767  -5.521  1.00  0.00     0.011 C
ATOM     27  C   UNL     1      30.060  12.441  -5.099  1.00  0.00     0.005 C
ATOM     28  G   UNL     1      29.183  11.377  -4.514  1.00  0.00     0.000 C
ENDBRANCH  15  25
ENDBRANCH  12  15
ENDBRANCH   1  11
BRANCH   7  29
ATOM     29  C   UNL     1      26.988  17.804  -6.654  1.00  0.00     0.023 C
ATOM     30  C   UNL     1      26.535  16.810  -5.587  1.00  0.00     0.015 C
ATOM     31  C   UNL     1      26.886  16.314  -6.958  1.00  0.00     0.015 C
BRANCH  29  32
ATOM     32  C   UNL     1      25.899  18.714  -7.227  1.00  0.00     0.083 C
BRANCH  32  33
ATOM     33  S   UNL     1      25.913  18.675  -9.045  1.00  0.00    -0.161 SA
BRANCH  33  34
ATOM     34  C   UNL     1      25.812  20.456  -9.389  1.00  0.00     0.073 C
ATOM     35  G   UNL     1      24.418  20.931  -9.117  1.00  0.00     0.000 C
ENDBRANCH  33  34
ENDBRANCH  32  33
ENDBRANCH  29  32
ENDBRANCH   7  29
TORSDOF 2
ENDMDL
