MODEL 1
REMARK VINA RESULT:     -11.0      0.000      0.000
REMARK SMILES CN1CCN2c3ccc(cn3)-c3cnc4cccc(c4n3)-c3cc(F)c(c(F)c3)CN3CCS(=O)(=O)C[C@H]3CNC[C@@H]2C1
REMARK SMILES IDX 22 1 23 2 24 3 25 4 26 5 27 6 28 7 29 8 19 9 12 10 13 11
REMARK SMILES IDX 21 12 14 13 20 14 15 15 16 16 18 17 17 18 9 19 6 20 7 21
REMARK SMILES IDX 11 22 8 23 10 24 5 25 2 26 3 27 43 28 4 29 42 30 1 31 30 33
REMARK SMILES IDX 31 34 32 35 38 36 33 37 37 38 34 39 35 40 36 41 39 42 40 43
REMARK SMILES IDX 41 45
REMARK H PARENT 40 44
REMARK Flexibility Score:   82.900
ROOT
ATOM      1  C   UNL     1      33.382  13.335  -3.194  1.00  0.00    -0.010 A
ATOM      2  C   UNL     1      32.894  14.501  -2.584  1.00  0.00     0.048 A
ATOM      3  C   UNL     1      32.044  15.364  -3.279  1.00  0.00     0.131 A
ATOM      4  F   UNL     1      31.604  16.467  -2.659  1.00  0.00    -0.207 F
ATOM      5  C   UNL     1      31.655  15.106  -4.592  1.00  0.00     0.038 A
ATOM      6  C   UNL     1      32.149  13.949  -5.195  1.00  0.00     0.131 A
ATOM      7  F   UNL     1      31.822  13.664  -6.464  1.00  0.00    -0.207 F
ATOM      8  C   UNL     1      33.000  13.074  -4.517  1.00  0.00     0.048 A
ENDROOT
BRANCH   1   9
ATOM      9  C   UNL     1      34.195  12.368  -2.436  1.00  0.00     0.010 A
ATOM     10  C   UNL     1      32.407   9.301  -3.090  1.00  0.00     0.091 A
ATOM     11  C   UNL     1      33.144   8.402  -2.343  1.00  0.00     0.140 A
ATOM     12  N   UNL     1      32.774  10.601  -3.142  1.00  0.00    -0.244 NA
ATOM     13  N   UNL     1      34.245   8.769  -1.639  1.00  0.00    -0.252 NA
ATOM     14  C   UNL     1      33.842  11.009  -2.433  1.00  0.00     0.097 A
ATOM     15  C   UNL     1      34.589  10.075  -1.680  1.00  0.00     0.089 A
ATOM     16  C   UNL     1      35.689  10.529  -0.964  1.00  0.00     0.030 A
ATOM     17  C   UNL     1      35.308  12.795  -1.699  1.00  0.00     0.011 A
ATOM     18  C   UNL     1      36.057  11.877  -0.968  1.00  0.00     0.003 A
BRANCH  10  19
ATOM     19  C   UNL     1      31.178   9.020  -3.823  1.00  0.00     0.020 A
ATOM     20  C   UNL     1      29.154   8.592  -5.682  1.00  0.00     0.128 A
ATOM     21  C   UNL     1      29.907   7.517  -5.222  1.00  0.00     0.047 A
ATOM     22  N   UNL     1      29.288   9.816  -5.129  1.00  0.00    -0.239 NA
ATOM     23  C   UNL     1      30.923   7.731  -4.300  1.00  0.00     0.016 A
ATOM     24  C   UNL     1      30.294  10.007  -4.237  1.00  0.00     0.124 A
BRANCH  20  25
ATOM     25  N   UNL     1      28.354   8.447  -6.802  1.00  0.00    -0.350 N
ATOM     26  N   UNL     1      26.884   8.640  -9.232  1.00  0.00    -0.303 NA
ATOM     27  C   UNL     1      28.210   7.967  -9.228  1.00  0.00     0.105 C
ATOM     28  C   UNL     1      26.155   8.304  -7.991  1.00  0.00     0.110 C
ATOM     29  C   UNL     1      28.782   7.525  -7.851  1.00  0.00     0.134 C
ATOM     30  C   UNL     1      26.889   8.652  -6.655  1.00  0.00     0.111 C
ATOM     31  C   UNL     1      27.042  10.087  -9.375  1.00  0.00     0.105 C
ATOM     32  G   UNL     1      26.284   7.803  -5.484  1.00  0.00     0.000 C
ENDBRANCH  20  25
ENDBRANCH  10  19
ENDBRANCH   1   9
BRANCH   5  33
ATOM     33  C   UNL     1      30.771  16.055  -5.353  1.00  0.00     0.126 C
BRANCH  33  34
ATOM     34  N   UNL     1      29.539  15.425  -5.883  1.00  0.00    -0.293 NA
ATOM     35  C   UNL     1      29.061  16.105  -7.092  1.00  0.00     0.101 C
ATOM     36  C   UNL     1      28.497  15.219  -4.838  1.00  0.00     0.085 C
ATOM     37  C   UNL     1      28.588  17.529  -6.872  1.00  0.00     0.152 C
ATOM     38  C   UNL     1      27.156  15.904  -5.118  1.00  0.00     0.157 C
ATOM     39  S   UNL     1      27.370  17.597  -5.583  1.00  0.00     0.153 S
ATOM     40  O   UNL     1      26.122  18.040  -6.178  1.00  0.00    -0.229 OA
ATOM     41  O   UNL     1      27.943  18.309  -4.456  1.00  0.00    -0.229 OA
BRANCH  36  42
ATOM     42  C   UNL     1      28.275  13.681  -4.675  1.00  0.00     0.101 C
BRANCH  42  43
ATOM     43  N   UNL     1      28.549  12.918  -5.905  1.00  0.00    -0.313 NA
ATOM     44  H   UNL     1      29.207  12.162  -5.728  1.00  0.00     0.122 HD
BRANCH  43  45
ATOM     45  C   UNL     1      27.315  12.377  -6.508  1.00  0.00     0.107 C
ATOM     46  G   UNL     1      26.573  13.305  -7.531  1.00  0.00     0.000 C
ENDBRANCH  43  45
ENDBRANCH  42  43
ENDBRANCH  36  42
ENDBRANCH  33  34
ENDBRANCH   5  33
TORSDOF 0
ENDMDL
MODEL 2
REMARK VINA RESULT:     -11.0      1.460      2.659
REMARK SMILES CN1CCN2c3ccc(cn3)-c3cnc4cccc(c4n3)-c3cc(F)c(c(F)c3)CN3CCS(=O)(=O)C[C@H]3CNC[C@@H]2C1
REMARK SMILES IDX 22 1 23 2 24 3 25 4 26 5 27 6 28 7 29 8 19 9 12 10 13 11
REMARK SMILES IDX 21 12 14 13 20 14 15 15 16 16 18 17 17 18 9 19 6 20 7 21
REMARK SMILES IDX 11 22 8 23 10 24 5 25 2 26 3 27 43 28 4 29 42 30 1 31 30 33
REMARK SMILES IDX 31 34 32 35 38 36 33 37 37 38 34 39 35 40 36 41 39 42 40 43
REMARK SMILES IDX 41 45
REMARK H PARENT 40 44
REMARK Flexibility Score:   82.900
ROOT
ATOM      1  C   UNL     1      33.481  13.273  -3.481  1.00  0.00    -0.010 A
ATOM      2  C   UNL     1      33.613  14.659  -3.313  1.00  0.00     0.048 A
ATOM      3  C   UNL     1      32.831  15.544  -4.059  1.00  0.00     0.131 A
ATOM      4  F   UNL     1      32.993  16.860  -3.867  1.00  0.00    -0.207 F
ATOM      5  C   UNL     1      31.902  15.088  -4.993  1.00  0.00     0.038 A
ATOM      6  C   UNL     1      31.780  13.709  -5.161  1.00  0.00     0.131 A
ATOM      7  F   UNL     1      30.916  13.219  -6.061  1.00  0.00    -0.207 F
ATOM      8  C   UNL     1      32.553  12.808  -4.425  1.00  0.00     0.048 A
ENDROOT
BRANCH   1   9
ATOM      9  C   UNL     1      34.226  12.331  -2.627  1.00  0.00     0.010 A
ATOM     10  C   UNL     1      32.320   9.304  -3.107  1.00  0.00     0.091 A
ATOM     11  C   UNL     1      32.992   8.434  -2.271  1.00  0.00     0.140 A
ATOM     12  N   UNL     1      32.748  10.579  -3.244  1.00  0.00    -0.244 NA
ATOM     13  N   UNL     1      34.089   8.805  -1.562  1.00  0.00    -0.252 NA
ATOM     14  C   UNL     1      33.812  10.993  -2.534  1.00  0.00     0.097 A
ATOM     15  C   UNL     1      34.493  10.089  -1.689  1.00  0.00     0.089 A
ATOM     16  C   UNL     1      35.592  10.548  -0.974  1.00  0.00     0.030 A
ATOM     17  C   UNL     1      35.336  12.765  -1.888  1.00  0.00     0.011 A
ATOM     18  C   UNL     1      36.021  11.873  -1.067  1.00  0.00     0.003 A
BRANCH  10  19
ATOM     19  C   UNL     1      31.101   9.022  -3.857  1.00  0.00     0.020 A
ATOM     20  C   UNL     1      29.094   8.621  -5.740  1.00  0.00     0.128 A
ATOM     21  C   UNL     1      29.877   7.548  -5.327  1.00  0.00     0.047 A
ATOM     22  N   UNL     1      29.192   9.822  -5.132  1.00  0.00    -0.239 NA
ATOM     23  C   UNL     1      30.884   7.749  -4.392  1.00  0.00     0.016 A
ATOM     24  C   UNL     1      30.190  10.001  -4.229  1.00  0.00     0.124 A
BRANCH  20  25
ATOM     25  N   UNL     1      28.302   8.504  -6.869  1.00  0.00    -0.350 N
ATOM     26  N   UNL     1      26.815   8.772  -9.281  1.00  0.00    -0.303 NA
ATOM     27  C   UNL     1      28.180   8.183  -9.322  1.00  0.00     0.105 C
ATOM     28  C   UNL     1      26.112   8.307  -8.067  1.00  0.00     0.110 C
ATOM     29  C   UNL     1      28.782   7.684  -7.978  1.00  0.00     0.134 C
ATOM     30  C   UNL     1      26.828   8.608  -6.710  1.00  0.00     0.111 C
ATOM     31  C   UNL     1      26.883  10.233  -9.324  1.00  0.00     0.105 C
ATOM     32  G   UNL     1      26.280   7.644  -5.601  1.00  0.00     0.000 C
ENDBRANCH  20  25
ENDBRANCH  10  19
ENDBRANCH   1   9
BRANCH   5  33
ATOM     33  C   UNL     1      31.088  16.041  -5.824  1.00  0.00     0.126 C
BRANCH  33  34
ATOM     34  N   UNL     1      30.105  16.824  -5.039  1.00  0.00    -0.293 NA
ATOM     35  C   UNL     1      29.218  15.953  -4.260  1.00  0.00     0.101 C
ATOM     36  C   UNL     1      29.399  17.852  -5.854  1.00  0.00     0.085 C
ATOM     37  C   UNL     1      28.297  15.080  -5.091  1.00  0.00     0.152 C
ATOM     38  C   UNL     1      27.874  17.718  -5.886  1.00  0.00     0.157 C
ATOM     39  S   UNL     1      27.370  16.060  -6.244  1.00  0.00     0.153 S
ATOM     40  O   UNL     1      25.968  15.951  -5.887  1.00  0.00    -0.229 OA
ATOM     41  O   UNL     1      27.818  15.728  -7.583  1.00  0.00    -0.229 OA
BRANCH  36  42
ATOM     42  C   UNL     1      29.789  19.259  -5.297  1.00  0.00     0.101 C
BRANCH  42  43
ATOM     43  N   UNL     1      30.923  19.223  -4.360  1.00  0.00    -0.313 NA
ATOM     44  H   UNL     1      31.291  18.278  -4.265  1.00  0.00     0.122 HD
BRANCH  43  45
ATOM     45  C   UNL     1      32.005  20.143  -4.761  1.00  0.00     0.107 C
ATOM     46  G   UNL     1      33.126  19.545  -5.679  1.00  0.00     0.000 C
ENDBRANCH  43  45
ENDBRANCH  42  43
ENDBRANCH  36  42
ENDBRANCH  33  34
ENDBRANCH   5  33
TORSDOF 0
ENDMDL
MODEL 3
REMARK VINA RESULT:     -10.9      1.688      3.087
REMARK SMILES CN1CCN2c3ccc(cn3)-c3cnc4cccc(c4n3)-c3cc(F)c(c(F)c3)CN3CCS(=O)(=O)C[C@H]3CNC[C@@H]2C1
REMARK SMILES IDX 22 1 23 2 24 3 25 4 26 5 27 6 28 7 29 8 19 9 12 10 13 11
REMARK SMILES IDX 21 12 14 13 20 14 15 15 16 16 18 17 17 18 9 19 6 20 7 21
REMARK SMILES IDX 11 22 8 23 10 24 5 25 2 26 3 27 43 28 4 29 42 30 1 31 30 33
REMARK SMILES IDX 31 34 32 35 38 36 33 37 37 38 34 39 35 40 36 41 39 42 40 43
REMARK SMILES IDX 41 45
REMARK H PARENT 40 44
REMARK Flexibility Score:   82.900
ROOT
ATOM      1  C   UNL     1      33.291  13.316  -3.494  1.00  0.00    -0.010 A
ATOM      2  C   UNL     1      32.251  12.843  -4.309  1.00  0.00     0.048 A
ATOM      3  C   UNL     1      31.552  13.716  -5.146  1.00  0.00     0.131 A
ATOM      4  F   UNL     1      30.564  13.222  -5.905  1.00  0.00    -0.207 F
ATOM      5  C   UNL     1      31.854  15.075  -5.200  1.00  0.00     0.038 A
ATOM      6  C   UNL     1      32.884  15.540  -4.382  1.00  0.00     0.131 A
ATOM      7  F   UNL     1      33.201  16.843  -4.381  1.00  0.00    -0.207 F
ATOM      8  C   UNL     1      33.595  14.683  -3.538  1.00  0.00     0.048 A
ENDROOT
BRANCH   1   9
ATOM      9  C   UNL     1      34.101  12.387  -2.686  1.00  0.00     0.010 A
ATOM     10  C   UNL     1      32.302   9.296  -3.174  1.00  0.00     0.091 A
ATOM     11  C   UNL     1      33.035   8.436  -2.380  1.00  0.00     0.140 A
ATOM     12  N   UNL     1      32.674  10.590  -3.295  1.00  0.00    -0.244 NA
ATOM     13  N   UNL     1      34.139   8.835  -1.698  1.00  0.00    -0.252 NA
ATOM     14  C   UNL     1      33.743  11.031  -2.611  1.00  0.00     0.097 A
ATOM     15  C   UNL     1      34.488  10.137  -1.809  1.00  0.00     0.089 A
ATOM     16  C   UNL     1      35.591  10.624  -1.120  1.00  0.00     0.030 A
ATOM     17  C   UNL     1      35.217  12.849  -1.974  1.00  0.00     0.011 A
ATOM     18  C   UNL     1      35.963  11.968  -1.196  1.00  0.00     0.003 A
BRANCH  10  19
ATOM     19  C   UNL     1      31.071   8.981  -3.889  1.00  0.00     0.020 A
ATOM     20  C   UNL     1      29.026   8.520  -5.718  1.00  0.00     0.128 A
ATOM     21  C   UNL     1      29.842   7.467  -5.314  1.00  0.00     0.047 A
ATOM     22  N   UNL     1      29.114   9.729  -5.124  1.00  0.00    -0.239 NA
ATOM     23  C   UNL     1      30.867   7.698  -4.407  1.00  0.00     0.016 A
ATOM     24  C   UNL     1      30.130   9.937  -4.248  1.00  0.00     0.124 A
BRANCH  20  25
ATOM     25  N   UNL     1      28.208   8.375  -6.825  1.00  0.00    -0.350 N
ATOM     26  N   UNL     1      26.665   8.584  -9.207  1.00  0.00    -0.303 NA
ATOM     27  C   UNL     1      28.032   8.003  -9.267  1.00  0.00     0.105 C
ATOM     28  C   UNL     1      25.993   8.141  -7.967  1.00  0.00     0.110 C
ATOM     29  C   UNL     1      28.668   7.535  -7.928  1.00  0.00     0.134 C
ATOM     30  C   UNL     1      26.738   8.473  -6.634  1.00  0.00     0.111 C
ATOM     31  C   UNL     1      26.722  10.044  -9.281  1.00  0.00     0.105 C
ATOM     32  G   UNL     1      26.222   7.529  -5.493  1.00  0.00     0.000 C
ENDBRANCH  20  25
ENDBRANCH  10  19
ENDBRANCH   1   9
BRANCH   5  33
ATOM     33  C   UNL     1      31.075  16.021  -6.071  1.00  0.00     0.126 C
BRANCH  33  34
ATOM     34  N   UNL     1      30.371  17.083  -5.315  1.00  0.00    -0.293 NA
ATOM     35  C   UNL     1      29.291  16.533  -4.489  1.00  0.00     0.101 C
ATOM     36  C   UNL     1      29.968  18.235  -6.171  1.00  0.00     0.085 C
ATOM     37  C   UNL     1      28.143  15.923  -5.271  1.00  0.00     0.152 C
ATOM     38  C   UNL     1      28.466  18.537  -6.183  1.00  0.00     0.157 C
ATOM     39  S   UNL     1      27.506  17.077  -6.459  1.00  0.00     0.153 S
ATOM     40  O   UNL     1      26.138  17.385  -6.086  1.00  0.00    -0.229 OA
ATOM     41  O   UNL     1      27.813  16.575  -7.786  1.00  0.00    -0.229 OA
BRANCH  36  42
ATOM     42  C   UNL     1      30.751  19.495  -5.683  1.00  0.00     0.101 C
BRANCH  42  43
ATOM     43  N   UNL     1      31.999  19.733  -6.427  1.00  0.00    -0.313 NA
ATOM     44  H   UNL     1      31.899  20.517  -7.068  1.00  0.00     0.122 HD
BRANCH  43  45
ATOM     45  C   UNL     1      33.147  19.963  -5.529  1.00  0.00     0.107 C
ATOM     46  G   UNL     1      33.881  21.341  -5.673  1.00  0.00     0.000 C
ENDBRANCH  43  45
ENDBRANCH  42  43
ENDBRANCH  36  42
ENDBRANCH  33  34
ENDBRANCH   5  33
TORSDOF 0
ENDMDL
MODEL 4
REMARK VINA RESULT:     -10.7      0.532      1.298
REMARK SMILES CN1CCN2c3ccc(cn3)-c3cnc4cccc(c4n3)-c3cc(F)c(c(F)c3)CN3CCS(=O)(=O)C[C@H]3CNC[C@@H]2C1
REMARK SMILES IDX 22 1 23 2 24 3 25 4 26 5 27 6 28 7 29 8 19 9 12 10 13 11
REMARK SMILES IDX 21 12 14 13 20 14 15 15 16 16 18 17 17 18 9 19 6 20 7 21
REMARK SMILES IDX 11 22 8 23 10 24 5 25 2 26 3 27 43 28 4 29 42 30 1 31 30 33
REMARK SMILES IDX 31 34 32 35 38 36 33 37 37 38 34 39 35 40 36 41 39 42 40 43
REMARK SMILES IDX 41 45
REMARK H PARENT 40 44
REMARK Flexibility Score:   82.900
ROOT
ATOM      1  C   UNL     1      33.189  13.347  -3.022  1.00  0.00    -0.010 A
ATOM      2  C   UNL     1      33.153  13.435  -4.421  1.00  0.00     0.048 A
ATOM      3  C   UNL     1      32.387  14.419  -5.051  1.00  0.00     0.131 A
ATOM      4  F   UNL     1      32.379  14.464  -6.390  1.00  0.00    -0.207 F
ATOM      5  C   UNL     1      31.634  15.337  -4.322  1.00  0.00     0.038 A
ATOM      6  C   UNL     1      31.669  15.239  -2.931  1.00  0.00     0.131 A
ATOM      7  F   UNL     1      30.946  16.086  -2.183  1.00  0.00    -0.207 F
ATOM      8  C   UNL     1      32.429  14.263  -2.282  1.00  0.00     0.048 A
ENDROOT
BRANCH   1   9
ATOM      9  C   UNL     1      34.074  12.380  -2.347  1.00  0.00     0.010 A
ATOM     10  C   UNL     1      32.399   9.272  -3.095  1.00  0.00     0.091 A
ATOM     11  C   UNL     1      33.203   8.371  -2.424  1.00  0.00     0.140 A
ATOM     12  N   UNL     1      32.706  10.588  -3.091  1.00  0.00    -0.244 NA
ATOM     13  N   UNL     1      34.315   8.751  -1.744  1.00  0.00    -0.252 NA
ATOM     14  C   UNL     1      33.782  11.008  -2.403  1.00  0.00     0.097 A
ATOM     15  C   UNL     1      34.599  10.073  -1.728  1.00  0.00     0.089 A
ATOM     16  C   UNL     1      35.705  10.540  -1.031  1.00  0.00     0.030 A
ATOM     17  C   UNL     1      35.196  12.820  -1.630  1.00  0.00     0.011 A
ATOM     18  C   UNL     1      36.013  11.901  -0.978  1.00  0.00     0.003 A
BRANCH  10  19
ATOM     19  C   UNL     1      31.155   8.972  -3.795  1.00  0.00     0.020 A
ATOM     20  C   UNL     1      29.081   8.541  -5.597  1.00  0.00     0.128 A
ATOM     21  C   UNL     1      29.891   7.478  -5.210  1.00  0.00     0.047 A
ATOM     22  N   UNL     1      29.189   9.746  -4.999  1.00  0.00    -0.239 NA
ATOM     23  C   UNL     1      30.931   7.695  -4.315  1.00  0.00     0.016 A
ATOM     24  C   UNL     1      30.219   9.940  -4.136  1.00  0.00     0.124 A
BRANCH  20  25
ATOM     25  N   UNL     1      28.247   8.409  -6.694  1.00  0.00    -0.350 N
ATOM     26  N   UNL     1      26.670   8.646  -9.051  1.00  0.00    -0.303 NA
ATOM     27  C   UNL     1      28.033   8.059  -9.136  1.00  0.00     0.105 C
ATOM     28  C   UNL     1      26.014   8.195  -7.806  1.00  0.00     0.110 C
ATOM     29  C   UNL     1      28.686   7.577  -7.810  1.00  0.00     0.134 C
ATOM     30  C   UNL     1      26.779   8.513  -6.480  1.00  0.00     0.111 C
ATOM     31  C   UNL     1      26.734  10.106  -9.114  1.00  0.00     0.105 C
ATOM     32  G   UNL     1      26.275   7.562  -5.340  1.00  0.00     0.000 C
ENDBRANCH  20  25
ENDBRANCH  10  19
ENDBRANCH   1   9
BRANCH   5  33
ATOM     33  C   UNL     1      30.779  16.371  -5.001  1.00  0.00     0.126 C
BRANCH  33  34
ATOM     34  N   UNL     1      29.603  15.803  -5.702  1.00  0.00    -0.293 NA
ATOM     35  C   UNL     1      29.359  16.477  -6.981  1.00  0.00     0.101 C
ATOM     36  C   UNL     1      28.404  15.689  -4.825  1.00  0.00     0.085 C
ATOM     37  C   UNL     1      28.950  17.933  -6.862  1.00  0.00     0.152 C
ATOM     38  C   UNL     1      27.168  16.446  -5.319  1.00  0.00     0.157 C
ATOM     39  S   UNL     1      27.558  18.110  -5.776  1.00  0.00     0.153 S
ATOM     40  O   UNL     1      26.446  18.611  -6.562  1.00  0.00    -0.229 OA
ATOM     41  O   UNL     1      27.998  18.816  -4.588  1.00  0.00    -0.229 OA
BRANCH  36  42
ATOM     42  C   UNL     1      28.062  14.173  -4.671  1.00  0.00     0.101 C
BRANCH  42  43
ATOM     43  N   UNL     1      26.702  13.831  -5.122  1.00  0.00    -0.313 NA
ATOM     44  H   UNL     1      26.174  14.668  -5.359  1.00  0.00     0.122 HD
BRANCH  43  45
ATOM     45  C   UNL     1      26.714  12.904  -6.270  1.00  0.00     0.107 C
ATOM     46  G   UNL     1      27.212  13.491  -7.636  1.00  0.00     0.000 C
ENDBRANCH  43  45
ENDBRANCH  42  43
ENDBRANCH  36  42
ENDBRANCH  33  34
ENDBRANCH   5  33
TORSDOF 0
ENDMDL
MODEL 5
REMARK VINA RESULT:     -10.6      1.823      3.010
REMARK SMILES CN1CCN2c3ccc(cn3)-c3cnc4cccc(c4n3)-c3cc(F)c(c(F)c3)CN3CCS(=O)(=O)C[C@H]3CNC[C@@H]2C1
REMARK SMILES IDX 22 1 23 2 24 3 25 4 26 5 27 6 28 7 29 8 19 9 12 10 13 11
REMARK SMILES IDX 21 12 14 13 20 14 15 15 16 16 18 17 17 18 9 19 6 20 7 21
REMARK SMILES IDX 11 22 8 23 10 24 5 25 2 26 3 27 43 28 4 29 42 30 1 31 30 33
REMARK SMILES IDX 31 34 32 35 38 36 33 37 37 38 34 39 35 40 36 41 39 42 40 43
REMARK SMILES IDX 41 45
REMARK H PARENT 40 44
REMARK Flexibility Score:   82.900
ROOT
ATOM      1  C   UNL     1      33.122  13.400  -3.073  1.00  0.00    -0.010 A
ATOM      2  C   UNL     1      32.255  14.212  -2.327  1.00  0.00     0.048 A
ATOM      3  C   UNL     1      31.326  15.035  -2.968  1.00  0.00     0.131 A
ATOM      4  F   UNL     1      30.519  15.796  -2.217  1.00  0.00    -0.207 F
ATOM      5  C   UNL     1      31.229  15.084  -4.358  1.00  0.00     0.038 A
ATOM      6  C   UNL     1      32.100  14.279  -5.093  1.00  0.00     0.131 A
ATOM      7  F   UNL     1      32.062  14.304  -6.434  1.00  0.00    -0.207 F
ATOM      8  C   UNL     1      33.035  13.450  -4.471  1.00  0.00     0.048 A
ENDROOT
BRANCH   1   9
ATOM      9  C   UNL     1      34.034  12.453  -2.405  1.00  0.00     0.010 A
ATOM     10  C   UNL     1      32.414   9.310  -3.126  1.00  0.00     0.091 A
ATOM     11  C   UNL     1      33.244   8.427  -2.462  1.00  0.00     0.140 A
ATOM     12  N   UNL     1      32.694  10.632  -3.130  1.00  0.00    -0.244 NA
ATOM     13  N   UNL     1      34.355   8.832  -1.795  1.00  0.00    -0.252 NA
ATOM     14  C   UNL     1      33.769  11.076  -2.454  1.00  0.00     0.097 A
ATOM     15  C   UNL     1      34.612  10.159  -1.786  1.00  0.00     0.089 A
ATOM     16  C   UNL     1      35.717  10.651  -1.103  1.00  0.00     0.030 A
ATOM     17  C   UNL     1      35.154  12.918  -1.702  1.00  0.00     0.011 A
ATOM     18  C   UNL     1      35.997  12.018  -1.057  1.00  0.00     0.003 A
BRANCH  10  19
ATOM     19  C   UNL     1      31.169   8.983  -3.811  1.00  0.00     0.020 A
ATOM     20  C   UNL     1      29.092   8.481  -5.591  1.00  0.00     0.128 A
ATOM     21  C   UNL     1      29.903   7.434  -5.165  1.00  0.00     0.047 A
ATOM     22  N   UNL     1      29.201   9.708  -5.040  1.00  0.00    -0.239 NA
ATOM     23  C   UNL     1      30.945   7.686  -4.282  1.00  0.00     0.016 A
ATOM     24  C   UNL     1      30.232   9.936  -4.188  1.00  0.00     0.124 A
BRANCH  20  25
ATOM     25  N   UNL     1      28.255   8.307  -6.680  1.00  0.00    -0.350 N
ATOM     26  N   UNL     1      26.716   8.430  -9.071  1.00  0.00    -0.303 NA
ATOM     27  C   UNL     1      28.026   7.727  -9.077  1.00  0.00     0.105 C
ATOM     28  C   UNL     1      26.018   8.165  -7.795  1.00  0.00     0.110 C
ATOM     29  C   UNL     1      28.630   7.331  -7.700  1.00  0.00     0.134 C
ATOM     30  C   UNL     1      26.800   8.552  -6.499  1.00  0.00     0.111 C
ATOM     31  C   UNL     1      26.902   9.866  -9.281  1.00  0.00     0.105 C
ATOM     32  G   UNL     1      26.213   7.768  -5.275  1.00  0.00     0.000 C
ENDBRANCH  20  25
ENDBRANCH  10  19
ENDBRANCH   1   9
BRANCH   5  33
ATOM     33  C   UNL     1      30.256  15.999  -5.048  1.00  0.00     0.126 C
BRANCH  33  34
ATOM     34  N   UNL     1      30.476  17.434  -4.752  1.00  0.00    -0.293 NA
ATOM     35  C   UNL     1      29.352  18.011  -4.008  1.00  0.00     0.101 C
ATOM     36  C   UNL     1      30.890  18.217  -5.951  1.00  0.00     0.085 C
ATOM     37  C   UNL     1      28.046  18.070  -4.778  1.00  0.00     0.152 C
ATOM     38  C   UNL     1      29.968  19.386  -6.309  1.00  0.00     0.157 C
ATOM     39  S   UNL     1      28.268  18.897  -6.332  1.00  0.00     0.153 S
ATOM     40  O   UNL     1      27.471  20.110  -6.304  1.00  0.00    -0.229 OA
ATOM     41  O   UNL     1      28.090  17.922  -7.392  1.00  0.00    -0.229 OA
BRANCH  36  42
ATOM     42  C   UNL     1      32.337  18.749  -5.702  1.00  0.00     0.101 C
BRANCH  42  43
ATOM     43  N   UNL     1      33.115  18.926  -6.940  1.00  0.00    -0.313 NA
ATOM     44  H   UNL     1      32.504  19.112  -7.733  1.00  0.00     0.122 HD
BRANCH  43  45
ATOM     45  C   UNL     1      34.117  20.003  -6.816  1.00  0.00     0.107 C
ATOM     46  G   UNL     1      33.815  21.121  -5.760  1.00  0.00     0.000 C
ENDBRANCH  43  45
ENDBRANCH  42  43
ENDBRANCH  36  42
ENDBRANCH  33  34
ENDBRANCH   5  33
TORSDOF 0
ENDMDL
MODEL 6
REMARK VINA RESULT:     -10.5      1.293      1.546
REMARK SMILES CN1CCN2c3ccc(cn3)-c3cnc4cccc(c4n3)-c3cc(F)c(c(F)c3)CN3CCS(=O)(=O)C[C@H]3CNC[C@@H]2C1
REMARK SMILES IDX 22 1 23 2 24 3 25 4 26 5 27 6 28 7 29 8 19 9 12 10 13 11
REMARK SMILES IDX 21 12 14 13 20 14 15 15 16 16 18 17 17 18 9 19 6 20 7 21
REMARK SMILES IDX 11 22 8 23 10 24 5 25 2 26 3 27 43 28 4 29 42 30 1 31 30 33
REMARK SMILES IDX 31 34 32 35 38 36 33 37 37 38 34 39 35 40 36 41 39 42 40 43
REMARK SMILES IDX 41 45
REMARK H PARENT 40 44
REMARK Flexibility Score:   82.900
ROOT
ATOM      1  C   UNL     1      33.360  13.530  -2.770  1.00  0.00    -0.010 A
ATOM      2  C   UNL     1      33.911  14.630  -3.444  1.00  0.00     0.048 A
ATOM      3  C   UNL     1      33.091  15.657  -3.917  1.00  0.00     0.131 A
ATOM      4  F   UNL     1      33.659  16.686  -4.559  1.00  0.00    -0.207 F
ATOM      5  C   UNL     1      31.708  15.627  -3.743  1.00  0.00     0.038 A
ATOM      6  C   UNL     1      31.166  14.527  -3.078  1.00  0.00     0.131 A
ATOM      7  F   UNL     1      29.839  14.440  -2.902  1.00  0.00    -0.207 F
ATOM      8  C   UNL     1      31.969  13.491  -2.598  1.00  0.00     0.048 A
ENDROOT
BRANCH   1   9
ATOM      9  C   UNL     1      34.225  12.494  -2.177  1.00  0.00     0.010 A
ATOM     10  C   UNL     1      32.494   9.491  -3.183  1.00  0.00     0.091 A
ATOM     11  C   UNL     1      33.280   8.522  -2.589  1.00  0.00     0.140 A
ATOM     12  N   UNL     1      32.825  10.797  -3.070  1.00  0.00    -0.244 NA
ATOM     13  N   UNL     1      34.397   8.824  -1.879  1.00  0.00    -0.252 NA
ATOM     14  C   UNL     1      33.907  11.137  -2.348  1.00  0.00     0.097 A
ATOM     15  C   UNL     1      34.705  10.134  -1.753  1.00  0.00     0.089 A
ATOM     16  C   UNL     1      35.819  10.521  -1.019  1.00  0.00     0.030 A
ATOM     17  C   UNL     1      35.353  12.852  -1.425  1.00  0.00     0.011 A
ATOM     18  C   UNL     1      36.151  11.867  -0.851  1.00  0.00     0.003 A
BRANCH  10  19
ATOM     19  C   UNL     1      31.246   9.274  -3.907  1.00  0.00     0.020 A
ATOM     20  C   UNL     1      29.190   8.944  -5.751  1.00  0.00     0.128 A
ATOM     21  C   UNL     1      29.881   7.831  -5.280  1.00  0.00     0.047 A
ATOM     22  N   UNL     1      29.400  10.165  -5.215  1.00  0.00    -0.239 NA
ATOM     23  C   UNL     1      30.912   7.997  -4.365  1.00  0.00     0.016 A
ATOM     24  C   UNL     1      30.420  10.307  -4.330  1.00  0.00     0.124 A
BRANCH  20  25
ATOM     25  N   UNL     1      28.378   8.832  -6.865  1.00  0.00    -0.350 N
ATOM     26  N   UNL     1      26.830   9.117  -9.237  1.00  0.00    -0.303 NA
ATOM     27  C   UNL     1      28.213   8.578  -9.323  1.00  0.00     0.105 C
ATOM     28  C   UNL     1      26.170   8.594  -8.023  1.00  0.00     0.110 C
ATOM     29  C   UNL     1      28.861   8.061  -8.008  1.00  0.00     0.134 C
ATOM     30  C   UNL     1      26.905   8.880  -6.672  1.00  0.00     0.111 C
ATOM     31  C   UNL     1      26.848  10.580  -9.238  1.00  0.00     0.105 C
ATOM     32  G   UNL     1      26.414   7.866  -5.581  1.00  0.00     0.000 C
ENDBRANCH  20  25
ENDBRANCH  10  19
ENDBRANCH   1   9
BRANCH   5  33
ATOM     33  C   UNL     1      30.822  16.713  -4.287  1.00  0.00     0.126 C
BRANCH  33  34
ATOM     34  N   UNL     1      30.519  16.566  -5.730  1.00  0.00    -0.293 NA
ATOM     35  C   UNL     1      31.087  17.666  -6.517  1.00  0.00     0.101 C
ATOM     36  C   UNL     1      29.077  16.299  -5.996  1.00  0.00     0.085 C
ATOM     37  C   UNL     1      30.484  19.028  -6.230  1.00  0.00     0.152 C
ATOM     38  C   UNL     1      28.386  17.320  -6.904  1.00  0.00     0.157 C
ATOM     39  S   UNL     1      28.717  18.981  -6.391  1.00  0.00     0.153 S
ATOM     40  O   UNL     1      28.352  19.852  -7.493  1.00  0.00    -0.229 OA
ATOM     41  O   UNL     1      28.138  19.175  -5.075  1.00  0.00    -0.229 OA
BRANCH  36  42
ATOM     42  C   UNL     1      28.960  14.875  -6.627  1.00  0.00     0.101 C
BRANCH  42  43
ATOM     43  N   UNL     1      28.073  13.972  -5.874  1.00  0.00    -0.313 NA
ATOM     44  H   UNL     1      28.343  13.928  -4.894  1.00  0.00     0.122 HD
BRANCH  43  45
ATOM     45  C   UNL     1      26.655  14.365  -5.987  1.00  0.00     0.107 C
ATOM     46  G   UNL     1      25.903  14.658  -4.643  1.00  0.00     0.000 C
ENDBRANCH  43  45
ENDBRANCH  42  43
ENDBRANCH  36  42
ENDBRANCH  33  34
ENDBRANCH   5  33
TORSDOF 0
ENDMDL
MODEL 7
REMARK VINA RESULT:     -10.5      1.810      2.992
REMARK SMILES CN1CCN2c3ccc(cn3)-c3cnc4cccc(c4n3)-c3cc(F)c(c(F)c3)CN3CCS(=O)(=O)C[C@H]3CNC[C@@H]2C1
REMARK SMILES IDX 22 1 23 2 24 3 25 4 26 5 27 6 28 7 29 8 19 9 12 10 13 11
REMARK SMILES IDX 21 12 14 13 20 14 15 15 16 16 18 17 17 18 9 19 6 20 7 21
REMARK SMILES IDX 11 22 8 23 10 24 5 25 2 26 3 27 43 28 4 29 42 30 1 31 30 33
REMARK SMILES IDX 31 34 32 35 38 36 33 37 37 38 34 39 35 40 36 41 39 42 40 43
REMARK SMILES IDX 41 45
REMARK H PARENT 40 44
REMARK Flexibility Score:   82.900
ROOT
ATOM      1  C   UNL     1      32.379  13.578  -3.864  1.00  0.00    -0.010 A
ATOM      2  C   UNL     1      31.015  13.430  -3.572  1.00  0.00     0.048 A
ATOM      3  C   UNL     1      30.052  14.128  -4.304  1.00  0.00     0.131 A
ATOM      4  F   UNL     1      28.761  13.959  -3.989  1.00  0.00    -0.207 F
ATOM      5  C   UNL     1      30.406  14.992  -5.339  1.00  0.00     0.038 A
ATOM      6  C   UNL     1      31.764  15.140  -5.619  1.00  0.00     0.131 A
ATOM      7  F   UNL     1      32.159  15.976  -6.592  1.00  0.00    -0.207 F
ATOM      8  C   UNL     1      32.742  14.452  -4.899  1.00  0.00     0.048 A
ENDROOT
BRANCH   1   9
ATOM      9  C   UNL     1      33.395  12.769  -3.167  1.00  0.00     0.010 A
ATOM     10  C   UNL     1      32.017   9.455  -3.545  1.00  0.00     0.091 A
ATOM     11  C   UNL     1      32.946   8.702  -2.852  1.00  0.00     0.140 A
ATOM     12  N   UNL     1      32.184  10.790  -3.671  1.00  0.00    -0.244 NA
ATOM     13  N   UNL     1      34.047   9.251  -2.277  1.00  0.00    -0.252 NA
ATOM     14  C   UNL     1      33.246  11.375  -3.089  1.00  0.00     0.097 A
ATOM     15  C   UNL     1      34.191  10.591  -2.390  1.00  0.00     0.089 A
ATOM     16  C   UNL     1      35.278  11.226  -1.806  1.00  0.00     0.030 A
ATOM     17  C   UNL     1      34.501  13.381  -2.561  1.00  0.00     0.011 A
ATOM     18  C   UNL     1      35.444  12.611  -1.886  1.00  0.00     0.003 A
BRANCH  10  19
ATOM     19  C   UNL     1      30.776   8.971  -4.138  1.00  0.00     0.020 A
ATOM     20  C   UNL     1      28.670   8.164  -5.766  1.00  0.00     0.128 A
ATOM     21  C   UNL     1      29.596   7.226  -5.321  1.00  0.00     0.047 A
ATOM     22  N   UNL     1      28.690   9.430  -5.299  1.00  0.00    -0.239 NA
ATOM     23  C   UNL     1      30.652   7.630  -4.514  1.00  0.00     0.016 A
ATOM     24  C   UNL     1      29.736   9.808  -4.521  1.00  0.00     0.124 A
BRANCH  20  25
ATOM     25  N   UNL     1      27.800   7.842  -6.794  1.00  0.00    -0.350 N
ATOM     26  N   UNL     1      26.157   7.654  -9.110  1.00  0.00    -0.303 NA
ATOM     27  C   UNL     1      27.507   7.031  -9.115  1.00  0.00     0.105 C
ATOM     28  C   UNL     1      25.531   7.468  -7.784  1.00  0.00     0.110 C
ATOM     29  C   UNL     1      28.191   6.799  -7.739  1.00  0.00     0.134 C
ATOM     30  C   UNL     1      26.342   8.018  -6.565  1.00  0.00     0.111 C
ATOM     31  C   UNL     1      26.244   9.073  -9.456  1.00  0.00     0.105 C
ATOM     32  G   UNL     1      25.856   7.317  -5.250  1.00  0.00     0.000 C
ENDBRANCH  20  25
ENDBRANCH  10  19
ENDBRANCH   1   9
BRANCH   5  33
ATOM     33  C   UNL     1      29.371  15.773  -6.101  1.00  0.00     0.126 C
BRANCH  33  34
ATOM     34  N   UNL     1      29.076  17.101  -5.512  1.00  0.00    -0.293 NA
ATOM     35  C   UNL     1      27.792  17.105  -4.803  1.00  0.00     0.101 C
ATOM     36  C   UNL     1      29.247  18.217  -6.484  1.00  0.00     0.085 C
ATOM     37  C   UNL     1      26.578  16.903  -5.689  1.00  0.00     0.152 C
ATOM     38  C   UNL     1      27.997  19.072  -6.713  1.00  0.00     0.157 C
ATOM     39  S   UNL     1      26.569  18.075  -7.022  1.00  0.00     0.153 S
ATOM     40  O   UNL     1      25.406  18.926  -6.852  1.00  0.00    -0.229 OA
ATOM     41  O   UNL     1      26.778  17.352  -8.262  1.00  0.00    -0.229 OA
BRANCH  36  42
ATOM     42  C   UNL     1      30.414  19.123  -5.977  1.00  0.00     0.101 C
BRANCH  42  43
ATOM     43  N   UNL     1      30.209  19.630  -4.611  1.00  0.00    -0.313 NA
ATOM     44  H   UNL     1      30.455  18.926  -3.918  1.00  0.00     0.122 HD
BRANCH  43  45
ATOM     45  C   UNL     1      30.971  20.869  -4.358  1.00  0.00     0.107 C
ATOM     46  G   UNL     1      32.435  20.915  -4.916  1.00  0.00     0.000 C
ENDBRANCH  43  45
ENDBRANCH  42  43
ENDBRANCH  36  42
ENDBRANCH  33  34
ENDBRANCH   5  33
TORSDOF 0
ENDMDL
MODEL 8
REMARK VINA RESULT:     -10.4      1.770      3.015
REMARK SMILES CN1CCN2c3ccc(cn3)-c3cnc4cccc(c4n3)-c3cc(F)c(c(F)c3)CN3CCS(=O)(=O)C[C@H]3CNC[C@@H]2C1
REMARK SMILES IDX 22 1 23 2 24 3 25 4 26 5 27 6 28 7 29 8 19 9 12 10 13 11
REMARK SMILES IDX 21 12 14 13 20 14 15 15 16 16 18 17 17 18 9 19 6 20 7 21
REMARK SMILES IDX 11 22 8 23 10 24 5 25 2 26 3 27 43 28 4 29 42 30 1 31 30 33
REMARK SMILES IDX 31 34 32 35 38 36 33 37 37 38 34 39 35 40 36 41 39 42 40 43
REMARK SMILES IDX 41 45
REMARK H PARENT 40 44
REMARK Flexibility Score:   82.900
ROOT
ATOM      1  C   UNL     1      32.512  13.502  -3.962  1.00  0.00    -0.010 A
ATOM      2  C   UNL     1      32.879  14.367  -5.004  1.00  0.00     0.048 A
ATOM      3  C   UNL     1      31.914  15.119  -5.678  1.00  0.00     0.131 A
ATOM      4  F   UNL     1      32.310  15.929  -6.668  1.00  0.00    -0.207 F
ATOM      5  C   UNL     1      30.563  15.036  -5.348  1.00  0.00     0.038 A
ATOM      6  C   UNL     1      30.203  14.169  -4.315  1.00  0.00     0.131 A
ATOM      7  F   UNL     1      28.913  14.038  -3.972  1.00  0.00    -0.207 F
ATOM      8  C   UNL     1      31.153  13.409  -3.630  1.00  0.00     0.048 A
ENDROOT
BRANCH   1   9
ATOM      9  C   UNL     1      33.533  12.784  -3.178  1.00  0.00     0.010 A
ATOM     10  C   UNL     1      32.279   9.404  -3.344  1.00  0.00     0.091 A
ATOM     11  C   UNL     1      33.211   8.738  -2.572  1.00  0.00     0.140 A
ATOM     12  N   UNL     1      32.405  10.731  -3.566  1.00  0.00    -0.244 NA
ATOM     13  N   UNL     1      34.274   9.367  -2.009  1.00  0.00    -0.252 NA
ATOM     14  C   UNL     1      33.427  11.395  -3.000  1.00  0.00     0.097 A
ATOM     15  C   UNL     1      34.377  10.699  -2.218  1.00  0.00     0.089 A
ATOM     16  C   UNL     1      35.424  11.415  -1.653  1.00  0.00     0.030 A
ATOM     17  C   UNL     1      34.599  13.479  -2.590  1.00  0.00     0.011 A
ATOM     18  C   UNL     1      35.546  12.794  -1.833  1.00  0.00     0.003 A
BRANCH  10  19
ATOM     19  C   UNL     1      31.073   8.833  -3.934  1.00  0.00     0.020 A
ATOM     20  C   UNL     1      29.055   7.809  -5.552  1.00  0.00     0.128 A
ATOM     21  C   UNL     1      29.973   6.945  -4.964  1.00  0.00     0.047 A
ATOM     22  N   UNL     1      29.036   9.120  -5.230  1.00  0.00    -0.239 NA
ATOM     23  C   UNL     1      30.985   7.456  -4.162  1.00  0.00     0.016 A
ATOM     24  C   UNL     1      30.040   9.602  -4.454  1.00  0.00     0.124 A
BRANCH  20  25
ATOM     25  N   UNL     1      28.239   7.358  -6.575  1.00  0.00    -0.350 N
ATOM     26  N   UNL     1      26.835   6.776  -8.981  1.00  0.00    -0.303 NA
ATOM     27  C   UNL     1      27.986   5.925  -8.578  1.00  0.00     0.105 C
ATOM     28  C   UNL     1      26.056   7.153  -7.783  1.00  0.00     0.110 C
ATOM     29  C   UNL     1      28.454   6.012  -7.099  1.00  0.00     0.134 C
ATOM     30  C   UNL     1      26.853   7.888  -6.656  1.00  0.00     0.111 C
ATOM     31  C   UNL     1      27.299   7.961  -9.702  1.00  0.00     0.105 C
ATOM     32  G   UNL     1      26.084   7.757  -5.296  1.00  0.00     0.000 C
ENDBRANCH  20  25
ENDBRANCH  10  19
ENDBRANCH   1   9
BRANCH   5  33
ATOM     33  C   UNL     1      29.520  15.816  -6.099  1.00  0.00     0.126 C
BRANCH  33  34
ATOM     34  N   UNL     1      29.105  17.064  -5.418  1.00  0.00    -0.293 NA
ATOM     35  C   UNL     1      27.788  16.924  -4.786  1.00  0.00     0.101 C
ATOM     36  C   UNL     1      29.250  18.272  -6.279  1.00  0.00     0.085 C
ATOM     37  C   UNL     1      26.638  16.727  -5.756  1.00  0.00     0.152 C
ATOM     38  C   UNL     1      27.959  19.064  -6.506  1.00  0.00     0.157 C
ATOM     39  S   UNL     1      26.620  18.010  -6.981  1.00  0.00     0.153 S
ATOM     40  O   UNL     1      25.395  18.768  -6.807  1.00  0.00    -0.229 OA
ATOM     41  O   UNL     1      26.942  17.415  -8.264  1.00  0.00    -0.229 OA
BRANCH  36  42
ATOM     42  C   UNL     1      30.326  19.200  -5.629  1.00  0.00     0.101 C
BRANCH  42  43
ATOM     43  N   UNL     1      31.708  18.781  -5.913  1.00  0.00    -0.313 NA
ATOM     44  H   UNL     1      31.740  18.123  -6.690  1.00  0.00     0.122 HD
BRANCH  43  45
ATOM     45  C   UNL     1      32.591  19.930  -6.195  1.00  0.00     0.107 C
ATOM     46  G   UNL     1      34.010  19.596  -6.770  1.00  0.00     0.000 C
ENDBRANCH  43  45
ENDBRANCH  42  43
ENDBRANCH  36  42
ENDBRANCH  33  34
ENDBRANCH   5  33
TORSDOF 0
ENDMDL
MODEL 9
REMARK VINA RESULT:     -10.3      1.428      2.548
REMARK SMILES CN1CCN2c3ccc(cn3)-c3cnc4cccc(c4n3)-c3cc(F)c(c(F)c3)CN3CCS(=O)(=O)C[C@H]3CNC[C@@H]2C1
REMARK SMILES IDX 22 1 23 2 24 3 25 4 26 5 27 6 28 7 29 8 19 9 12 10 13 11
REMARK SMILES IDX 21 12 14 13 20 14 15 15 16 16 18 17 17 18 9 19 6 20 7 21
REMARK SMILES IDX 11 22 8 23 10 24 5 25 2 26 3 27 43 28 4 29 42 30 1 31 30 33
REMARK SMILES IDX 31 34 32 35 38 36 33 37 37 38 34 39 35 40 36 41 39 42 40 43
REMARK SMILES IDX 41 45
REMARK H PARENT 40 44
REMARK Flexibility Score:   82.900
ROOT
ATOM      1  C   UNL     1      33.392  13.300  -3.626  1.00  0.00    -0.010 A
ATOM      2  C   UNL     1      33.565  14.691  -3.575  1.00  0.00     0.048 A
ATOM      3  C   UNL     1      32.764  15.535  -4.347  1.00  0.00     0.131 A
ATOM      4  F   UNL     1      32.966  16.857  -4.269  1.00  0.00    -0.207 F
ATOM      5  C   UNL     1      31.777  15.033  -5.193  1.00  0.00     0.038 A
ATOM      6  C   UNL     1      31.615  13.648  -5.245  1.00  0.00     0.131 A
ATOM      7  F   UNL     1      30.692  13.113  -6.058  1.00  0.00    -0.207 F
ATOM      8  C   UNL     1      32.405  12.788  -4.480  1.00  0.00     0.048 A
ENDROOT
BRANCH   1   9
ATOM      9  C   UNL     1      34.161  12.408  -2.739  1.00  0.00     0.010 A
ATOM     10  C   UNL     1      32.309   9.329  -3.082  1.00  0.00     0.091 A
ATOM     11  C   UNL     1      33.003   8.506  -2.216  1.00  0.00     0.140 A
ATOM     12  N   UNL     1      32.712  10.605  -3.274  1.00  0.00    -0.244 NA
ATOM     13  N   UNL     1      34.097   8.926  -1.530  1.00  0.00    -0.252 NA
ATOM     14  C   UNL     1      33.772  11.067  -2.589  1.00  0.00     0.097 A
ATOM     15  C   UNL     1      34.476  10.211  -1.713  1.00  0.00     0.089 A
ATOM     16  C   UNL     1      35.570  10.719  -1.025  1.00  0.00     0.030 A
ATOM     17  C   UNL     1      35.267  12.892  -2.027  1.00  0.00     0.011 A
ATOM     18  C   UNL     1      35.973  12.047  -1.175  1.00  0.00     0.003 A
BRANCH  10  19
ATOM     19  C   UNL     1      31.091   8.993  -3.811  1.00  0.00     0.020 A
ATOM     20  C   UNL     1      29.073   8.501  -5.660  1.00  0.00     0.128 A
ATOM     21  C   UNL     1      29.905   7.462  -5.254  1.00  0.00     0.047 A
ATOM     22  N   UNL     1      29.132   9.709  -5.060  1.00  0.00    -0.239 NA
ATOM     23  C   UNL     1      30.917   7.709  -4.336  1.00  0.00     0.016 A
ATOM     24  C   UNL     1      30.136   9.933  -4.174  1.00  0.00     0.124 A
BRANCH  20  25
ATOM     25  N   UNL     1      28.268   8.346  -6.776  1.00  0.00    -0.350 N
ATOM     26  N   UNL     1      26.752   8.532  -9.177  1.00  0.00    -0.303 NA
ATOM     27  C   UNL     1      28.121   7.953  -9.216  1.00  0.00     0.105 C
ATOM     28  C   UNL     1      26.066   8.098  -7.941  1.00  0.00     0.110 C
ATOM     29  C   UNL     1      28.742   7.498  -7.866  1.00  0.00     0.134 C
ATOM     30  C   UNL     1      26.795   8.442  -6.602  1.00  0.00     0.111 C
ATOM     31  C   UNL     1      26.808   9.992  -9.263  1.00  0.00     0.105 C
ATOM     32  G   UNL     1      26.268   7.507  -5.459  1.00  0.00     0.000 C
ENDBRANCH  20  25
ENDBRANCH  10  19
ENDBRANCH   1   9
BRANCH   5  33
ATOM     33  C   UNL     1      30.941  15.940  -6.054  1.00  0.00     0.126 C
BRANCH  33  34
ATOM     34  N   UNL     1      30.032  16.820  -5.283  1.00  0.00    -0.293 NA
ATOM     35  C   UNL     1      29.253  16.062  -4.298  1.00  0.00     0.101 C
ATOM     36  C   UNL     1      29.221  17.719  -6.151  1.00  0.00     0.085 C
ATOM     37  C   UNL     1      28.266  15.075  -4.893  1.00  0.00     0.152 C
ATOM     38  C   UNL     1      27.704  17.572  -5.997  1.00  0.00     0.157 C
ATOM     39  S   UNL     1      27.200  15.877  -6.062  1.00  0.00     0.153 S
ATOM     40  O   UNL     1      25.847  15.811  -5.542  1.00  0.00    -0.229 OA
ATOM     41  O   UNL     1      27.508  15.362  -7.383  1.00  0.00    -0.229 OA
BRANCH  36  42
ATOM     42  C   UNL     1      29.638  19.192  -5.842  1.00  0.00     0.101 C
BRANCH  42  43
ATOM     43  N   UNL     1      28.501  20.128  -5.812  1.00  0.00    -0.313 NA
ATOM     44  H   UNL     1      28.448  20.611  -4.917  1.00  0.00     0.122 HD
BRANCH  43  45
ATOM     45  C   UNL     1      28.562  21.111  -6.910  1.00  0.00     0.107 C
ATOM     46  G   UNL     1      27.793  20.739  -8.225  1.00  0.00     0.000 C
ENDBRANCH  43  45
ENDBRANCH  42  43
ENDBRANCH  36  42
ENDBRANCH  33  34
ENDBRANCH   5  33
TORSDOF 0
ENDMDL
