MODEL 1
REMARK VINA RESULT:      -7.4      0.000      0.000
REMARK SMILES C1=C2\CCC[C@H]3CCCN3CCOc3ccc(cc3COC/1)Nc1nccc(n1)-c1ccc(s1)COC2
REMARK SMILES IDX 14 1 15 2 16 3 17 4 18 5 19 6 20 7 21 8 22 9 1 10 2 11 3 13
REMARK SMILES IDX 4 14 13 16 12 17 11 18 10 19 9 20 6 21 8 22 7 23 5 24 23 26
REMARK SMILES IDX 24 28 25 29 29 30 26 31 28 32 27 33 30 34 31 35 34 36 32 37
REMARK SMILES IDX 33 38 35 39 36 40 37 41
REMARK H PARENT 23 27
REMARK Flexibility Score:   91.800
ROOT
ATOM      1  C   UNL     1      31.486  13.989  -4.843  1.00  0.00     0.125 A
ATOM      2  C   UNL     1      31.024  14.864  -5.825  1.00  0.00     0.049 A
ATOM      3  C   UNL     1      31.592  16.136  -5.953  1.00  0.00     0.030 A
ATOM      4  C   UNL     1      32.622  16.555  -5.103  1.00  0.00     0.042 A
ATOM      5  C   UNL     1      33.055  15.672  -4.106  1.00  0.00     0.036 A
ATOM      6  C   UNL     1      32.472  14.401  -3.936  1.00  0.00     0.022 A
ENDROOT
BRANCH   6   7
ATOM      7  C   UNL     1      32.842  13.515  -2.770  1.00  0.00     0.200 C
BRANCH   7   8
ATOM      8  O   UNL     1      34.131  13.848  -2.267  1.00  0.00    -0.373 OA
BRANCH   8   9
ATOM      9  C   UNL     1      35.142  12.962  -2.721  1.00  0.00     0.188 C
BRANCH   9  10
ATOM     10  C   UNL     1      35.347  11.946  -1.646  1.00  0.00     0.003 C
ATOM     11  C   UNL     1      34.918  10.665  -1.663  1.00  0.00    -0.046 C
ATOM     12  G   UNL     1      35.213   9.689  -0.539  1.00  0.00     0.000 C
BRANCH  11  13
ATOM     13  C   UNL     1      34.190  10.065  -2.854  1.00  0.00     0.033 C
BRANCH  13  14
ATOM     14  C   UNL     1      33.360   8.839  -2.473  1.00  0.00     0.006 C
ATOM     15  G   UNL     1      31.857   9.035  -2.722  1.00  0.00     0.000 C
ENDBRANCH  13  14
ENDBRANCH  11  13
ENDBRANCH   9  10
ENDBRANCH   8   9
ENDBRANCH   7   8
ENDBRANCH   6   7
BRANCH   1  16
ATOM     16  O   UNL     1      30.938  12.744  -4.679  1.00  0.00    -0.492 OA
BRANCH  16  17
ATOM     17  C   UNL     1      29.591  12.761  -4.191  1.00  0.00     0.245 C
BRANCH  17  18
ATOM     18  C   UNL     1      28.523  12.456  -5.274  1.00  0.00     0.126 C
BRANCH  18  19
ATOM     19  N   UNL     1      27.481  13.468  -5.542  1.00  0.00    -0.297 NA
ATOM     20  C   UNL     1      27.537  14.639  -4.664  1.00  0.00     0.085 C
ATOM     21  C   UNL     1      27.546  14.010  -6.914  1.00  0.00     0.056 C
ATOM     22  C   UNL     1      26.584  15.597  -5.349  1.00  0.00     0.017 C
ATOM     23  C   UNL     1      26.839  15.373  -6.830  1.00  0.00     0.020 C
BRANCH  21  24
ATOM     24  C   UNL     1      27.005  13.108  -8.037  1.00  0.00     0.019 C
ATOM     25  G   UNL     1      27.317  13.523  -9.483  1.00  0.00     0.000 C
ENDBRANCH  21  24
ENDBRANCH  18  19
ENDBRANCH  17  18
ENDBRANCH  16  17
ENDBRANCH   1  16
BRANCH   4  26
ATOM     26  N   UNL     1      33.208  17.807  -5.315  1.00  0.00    -0.324 N
ATOM     27  H   UNL     1      34.214  17.856  -5.341  1.00  0.00     0.170 HD
BRANCH  26  28
ATOM     28  C   UNL     1      32.651  19.062  -5.533  1.00  0.00     0.227 A
ATOM     29  N   UNL     1      33.433  20.107  -5.209  1.00  0.00    -0.221 NA
ATOM     30  N   UNL     1      31.388  19.195  -5.953  1.00  0.00    -0.212 NA
ATOM     31  C   UNL     1      32.908  21.339  -5.349  1.00  0.00     0.117 A
ATOM     32  C   UNL     1      30.894  20.442  -6.056  1.00  0.00     0.086 A
ATOM     33  C   UNL     1      31.623  21.571  -5.765  1.00  0.00     0.050 A
BRANCH  32  34
ATOM     34  C   UNL     1      29.478  20.518  -6.397  1.00  0.00     0.053 A
ATOM     35  C   UNL     1      28.721  21.641  -6.673  1.00  0.00     0.022 A
ATOM     36  S   UNL     1      28.538  19.092  -6.494  1.00  0.00    -0.136 S
ATOM     37  C   UNL     1      27.351  21.327  -6.900  1.00  0.00     0.018 A
ATOM     38  C   UNL     1      27.096  19.973  -6.793  1.00  0.00     0.031 A
BRANCH  38  39
ATOM     39  C   UNL     1      25.769  19.281  -6.915  1.00  0.00     0.207 C
BRANCH  39  40
ATOM     40  O   UNL     1      24.780  20.171  -7.430  1.00  0.00    -0.372 OA
BRANCH  40  41
ATOM     41  C   UNL     1      24.286  19.817  -8.723  1.00  0.00     0.191 C
ATOM     42  G   UNL     1      24.980  20.623  -9.804  1.00  0.00     0.000 C
ENDBRANCH  40  41
ENDBRANCH  39  40
ENDBRANCH  38  39
ENDBRANCH  32  34
ENDBRANCH  26  28
ENDBRANCH   4  26
TORSDOF 0
ENDMDL
MODEL 2
REMARK VINA RESULT:      -7.4      3.808      9.639
REMARK SMILES C1=C2\CCC[C@H]3CCCN3CCOc3ccc(cc3COC/1)Nc1nccc(n1)-c1ccc(s1)COC2
REMARK SMILES IDX 14 1 15 2 16 3 17 4 18 5 19 6 20 7 21 8 22 9 1 10 2 11 3 13
REMARK SMILES IDX 4 14 13 16 12 17 11 18 10 19 9 20 6 21 8 22 7 23 5 24 23 26
REMARK SMILES IDX 24 28 25 29 29 30 26 31 28 32 27 33 30 34 31 35 34 36 32 37
REMARK SMILES IDX 33 38 35 39 36 40 37 41
REMARK H PARENT 23 27
REMARK Flexibility Score:   91.800
ROOT
ATOM      1  C   UNL     1      31.532  15.962  -4.285  1.00  0.00     0.125 A
ATOM      2  C   UNL     1      32.866  15.946  -3.880  1.00  0.00     0.049 A
ATOM      3  C   UNL     1      33.476  14.737  -3.529  1.00  0.00     0.030 A
ATOM      4  C   UNL     1      32.766  13.531  -3.573  1.00  0.00     0.042 A
ATOM      5  C   UNL     1      31.420  13.572  -3.957  1.00  0.00     0.036 A
ATOM      6  C   UNL     1      30.777  14.783  -4.279  1.00  0.00     0.022 A
ENDROOT
BRANCH   6   7
ATOM      7  C   UNL     1      29.292  14.836  -4.550  1.00  0.00     0.200 C
BRANCH   7   8
ATOM      8  O   UNL     1      28.908  13.834  -5.485  1.00  0.00    -0.373 OA
BRANCH   8   9
ATOM      9  C   UNL     1      27.558  13.427  -5.328  1.00  0.00     0.188 C
BRANCH   9  10
ATOM     10  C   UNL     1      27.315  12.331  -6.312  1.00  0.00     0.003 C
ATOM     11  C   UNL     1      26.732  12.457  -7.524  1.00  0.00    -0.046 C
ATOM     12  G   UNL     1      26.567  11.290  -8.479  1.00  0.00     0.000 C
BRANCH  11  13
ATOM     13  C   UNL     1      26.281  13.800  -8.074  1.00  0.00     0.033 C
BRANCH  13  14
ATOM     14  C   UNL     1      27.363  14.478  -8.915  1.00  0.00     0.006 C
ATOM     15  G   UNL     1      27.914  15.755  -8.262  1.00  0.00     0.000 C
ENDBRANCH  13  14
ENDBRANCH  11  13
ENDBRANCH   9  10
ENDBRANCH   8   9
ENDBRANCH   7   8
ENDBRANCH   6   7
BRANCH   1  16
ATOM     16  O   UNL     1      30.900  17.132  -4.616  1.00  0.00    -0.492 OA
BRANCH  16  17
ATOM     17  C   UNL     1      31.193  17.598  -5.939  1.00  0.00     0.245 C
BRANCH  17  18
ATOM     18  C   UNL     1      30.620  19.005  -6.255  1.00  0.00     0.126 C
BRANCH  18  19
ATOM     19  N   UNL     1      31.478  20.185  -6.021  1.00  0.00    -0.297 NA
ATOM     20  C   UNL     1      31.044  21.035  -4.910  1.00  0.00     0.085 C
ATOM     21  C   UNL     1      32.875  19.826  -5.710  1.00  0.00     0.056 C
ATOM     22  C   UNL     1      32.237  21.950  -4.724  1.00  0.00     0.017 C
ATOM     23  C   UNL     1      33.435  21.045  -4.957  1.00  0.00     0.020 C
BRANCH  21  24
ATOM     24  C   UNL     1      33.752  19.382  -6.894  1.00  0.00     0.019 C
ATOM     25  G   UNL     1      34.479  18.035  -6.764  1.00  0.00     0.000 C
ENDBRANCH  21  24
ENDBRANCH  18  19
ENDBRANCH  17  18
ENDBRANCH  16  17
ENDBRANCH   1  16
BRANCH   4  26
ATOM     26  N   UNL     1      33.437  12.339  -3.283  1.00  0.00    -0.324 N
ATOM     27  H   UNL     1      34.429  12.388  -3.117  1.00  0.00     0.170 HD
BRANCH  26  28
ATOM     28  C   UNL     1      32.982  11.033  -3.145  1.00  0.00     0.227 A
ATOM     29  N   UNL     1      33.706  10.250  -2.326  1.00  0.00    -0.221 NA
ATOM     30  N   UNL     1      31.944  10.583  -3.860  1.00  0.00    -0.212 NA
ATOM     31  C   UNL     1      33.333   8.962  -2.212  1.00  0.00     0.117 A
ATOM     32  C   UNL     1      31.619   9.283  -3.735  1.00  0.00     0.086 A
ATOM     33  C   UNL     1      32.289   8.412  -2.909  1.00  0.00     0.050 A
BRANCH  32  34
ATOM     34  C   UNL     1      30.563   8.823  -4.630  1.00  0.00     0.053 A
ATOM     35  C   UNL     1      29.713   9.580  -5.413  1.00  0.00     0.022 A
ATOM     36  S   UNL     1      30.255   7.150  -4.810  1.00  0.00    -0.136 S
ATOM     37  C   UNL     1      28.763   8.779  -6.109  1.00  0.00     0.018 A
ATOM     38  C   UNL     1      28.914   7.432  -5.843  1.00  0.00     0.031 A
BRANCH  38  39
ATOM     39  C   UNL     1      28.068   6.300  -6.352  1.00  0.00     0.207 C
BRANCH  39  40
ATOM     40  O   UNL     1      26.739   6.394  -5.845  1.00  0.00    -0.372 OA
BRANCH  40  41
ATOM     41  C   UNL     1      26.133   5.136  -5.542  1.00  0.00     0.191 C
ATOM     42  G   UNL     1      26.802   4.492  -4.343  1.00  0.00     0.000 C
ENDBRANCH  40  41
ENDBRANCH  39  40
ENDBRANCH  38  39
ENDBRANCH  32  34
ENDBRANCH  26  28
ENDBRANCH   4  26
TORSDOF 0
ENDMDL
MODEL 3
REMARK VINA RESULT:      -7.3      3.932      8.675
REMARK SMILES C1=C2\CCC[C@H]3CCCN3CCOc3ccc(cc3COC/1)Nc1nccc(n1)-c1ccc(s1)COC2
REMARK SMILES IDX 14 1 15 2 16 3 17 4 18 5 19 6 20 7 21 8 22 9 1 10 2 11 3 13
REMARK SMILES IDX 4 14 13 16 12 17 11 18 10 19 9 20 6 21 8 22 7 23 5 24 23 26
REMARK SMILES IDX 24 28 25 29 29 30 26 31 28 32 27 33 30 34 31 35 34 36 32 37
REMARK SMILES IDX 33 38 35 39 36 40 37 41
REMARK H PARENT 23 27
REMARK Flexibility Score:   91.800
ROOT
ATOM      1  C   UNL     1      28.872   8.145  -5.686  1.00  0.00     0.125 A
ATOM      2  C   UNL     1      29.646   7.007  -5.460  1.00  0.00     0.049 A
ATOM      3  C   UNL     1      30.715   7.055  -4.559  1.00  0.00     0.030 A
ATOM      4  C   UNL     1      31.029   8.235  -3.875  1.00  0.00     0.042 A
ATOM      5  C   UNL     1      30.256   9.374  -4.135  1.00  0.00     0.036 A
ATOM      6  C   UNL     1      29.199   9.357  -5.065  1.00  0.00     0.022 A
ENDROOT
BRANCH   6   7
ATOM      7  C   UNL     1      28.467  10.622  -5.446  1.00  0.00     0.200 C
BRANCH   7   8
ATOM      8  O   UNL     1      29.284  11.768  -5.232  1.00  0.00    -0.373 OA
BRANCH   8   9
ATOM      9  C   UNL     1      28.530  12.924  -4.904  1.00  0.00     0.188 C
BRANCH   9  10
ATOM     10  C   UNL     1      27.390  12.989  -5.866  1.00  0.00     0.003 C
ATOM     11  C   UNL     1      26.382  13.889  -5.854  1.00  0.00    -0.046 C
ATOM     12  G   UNL     1      25.287  13.905  -6.903  1.00  0.00     0.000 C
BRANCH  11  13
ATOM     13  C   UNL     1      26.315  15.023  -4.844  1.00  0.00     0.033 C
BRANCH  13  14
ATOM     14  C   UNL     1      27.308  16.142  -5.158  1.00  0.00     0.006 C
ATOM     15  G   UNL     1      26.692  17.267  -6.004  1.00  0.00     0.000 C
ENDBRANCH  13  14
ENDBRANCH  11  13
ENDBRANCH   9  10
ENDBRANCH   8   9
ENDBRANCH   7   8
ENDBRANCH   6   7
BRANCH   1  16
ATOM     16  O   UNL     1      27.831   8.136  -6.577  1.00  0.00    -0.492 OA
BRANCH  16  17
ATOM     17  C   UNL     1      26.694   7.382  -6.137  1.00  0.00     0.245 C
BRANCH  17  18
ATOM     18  C   UNL     1      25.390   7.694  -6.916  1.00  0.00     0.126 C
BRANCH  18  19
ATOM     19  N   UNL     1      25.473   7.905  -8.376  1.00  0.00    -0.297 NA
ATOM     20  C   UNL     1      24.573   7.056  -9.160  1.00  0.00     0.085 C
ATOM     21  C   UNL     1      25.147   9.288  -8.776  1.00  0.00     0.056 C
ATOM     22  C   UNL     1      24.656   7.688 -10.535  1.00  0.00     0.017 C
ATOM     23  C   UNL     1      24.722   9.180 -10.250  1.00  0.00     0.020 C
BRANCH  21  24
ATOM     24  C   UNL     1      26.231  10.351  -8.528  1.00  0.00     0.019 C
ATOM     25  G   UNL     1      26.444  11.406  -9.623  1.00  0.00     0.000 C
ENDBRANCH  21  24
ENDBRANCH  18  19
ENDBRANCH  17  18
ENDBRANCH  16  17
ENDBRANCH   1  16
BRANCH   4  26
ATOM     26  N   UNL     1      32.060   8.216  -2.930  1.00  0.00    -0.324 N
ATOM     27  H   UNL     1      32.150   7.398  -2.349  1.00  0.00     0.170 HD
BRANCH  26  28
ATOM     28  C   UNL     1      33.056   9.139  -2.632  1.00  0.00     0.227 A
ATOM     29  N   UNL     1      34.049   8.686  -1.846  1.00  0.00    -0.221 NA
ATOM     30  N   UNL     1      32.965  10.411  -3.036  1.00  0.00    -0.212 NA
ATOM     31  C   UNL     1      35.002   9.566  -1.485  1.00  0.00     0.117 A
ATOM     32  C   UNL     1      33.925  11.263  -2.633  1.00  0.00     0.086 A
ATOM     33  C   UNL     1      34.988  10.888  -1.846  1.00  0.00     0.050 A
BRANCH  32  34
ATOM     34  C   UNL     1      33.705  12.658  -3.000  1.00  0.00     0.053 A
ATOM     35  C   UNL     1      34.431  13.769  -2.618  1.00  0.00     0.022 A
ATOM     36  S   UNL     1      32.408  13.082  -4.030  1.00  0.00    -0.136 S
ATOM     37  C   UNL     1      33.875  14.979  -3.125  1.00  0.00     0.018 A
ATOM     38  C   UNL     1      32.740  14.759  -3.882  1.00  0.00     0.031 A
BRANCH  38  39
ATOM     39  C   UNL     1      31.861  15.791  -4.530  1.00  0.00     0.207 C
BRANCH  39  40
ATOM     40  O   UNL     1      31.808  16.977  -3.740  1.00  0.00    -0.372 OA
BRANCH  40  41
ATOM     41  C   UNL     1      31.629  18.178  -4.494  1.00  0.00     0.191 C
ATOM     42  G   UNL     1      32.765  18.368  -5.482  1.00  0.00     0.000 C
ENDBRANCH  40  41
ENDBRANCH  39  40
ENDBRANCH  38  39
ENDBRANCH  32  34
ENDBRANCH  26  28
ENDBRANCH   4  26
TORSDOF 0
ENDMDL
MODEL 4
REMARK VINA RESULT:      -7.2      1.054      1.178
REMARK SMILES C1=C2\CCC[C@H]3CCCN3CCOc3ccc(cc3COC/1)Nc1nccc(n1)-c1ccc(s1)COC2
REMARK SMILES IDX 14 1 15 2 16 3 17 4 18 5 19 6 20 7 21 8 22 9 1 10 2 11 3 13
REMARK SMILES IDX 4 14 13 16 12 17 11 18 10 19 9 20 6 21 8 22 7 23 5 24 23 26
REMARK SMILES IDX 24 28 25 29 29 30 26 31 28 32 27 33 30 34 31 35 34 36 32 37
REMARK SMILES IDX 33 38 35 39 36 40 37 41
REMARK H PARENT 23 27
REMARK Flexibility Score:   91.800
ROOT
ATOM      1  C   UNL     1      31.920  14.067  -5.122  1.00  0.00     0.125 A
ATOM      2  C   UNL     1      31.712  14.919  -6.207  1.00  0.00     0.049 A
ATOM      3  C   UNL     1      32.227  16.219  -6.184  1.00  0.00     0.030 A
ATOM      4  C   UNL     1      32.951  16.689  -5.082  1.00  0.00     0.042 A
ATOM      5  C   UNL     1      33.126  15.828  -3.992  1.00  0.00     0.036 A
ATOM      6  C   UNL     1      32.585  14.527  -3.979  1.00  0.00     0.022 A
ENDROOT
BRANCH   6   7
ATOM      7  C   UNL     1      32.653  13.660  -2.744  1.00  0.00     0.200 C
BRANCH   7   8
ATOM      8  O   UNL     1      33.924  13.771  -2.113  1.00  0.00    -0.373 OA
BRANCH   8   9
ATOM      9  C   UNL     1      34.917  12.973  -2.739  1.00  0.00     0.188 C
BRANCH   9  10
ATOM     10  C   UNL     1      35.075  11.742  -1.909  1.00  0.00     0.003 C
ATOM     11  C   UNL     1      34.554  10.524  -2.177  1.00  0.00    -0.046 C
ATOM     12  G   UNL     1      34.805   9.316  -1.295  1.00  0.00     0.000 C
BRANCH  11  13
ATOM     13  C   UNL     1      33.755  10.240  -3.438  1.00  0.00     0.033 C
BRANCH  13  14
ATOM     14  C   UNL     1      32.259  10.097  -3.159  1.00  0.00     0.006 C
ATOM     15  G   UNL     1      31.749   8.661  -3.351  1.00  0.00     0.000 C
ENDBRANCH  13  14
ENDBRANCH  11  13
ENDBRANCH   9  10
ENDBRANCH   8   9
ENDBRANCH   7   8
ENDBRANCH   6   7
BRANCH   1  16
ATOM     16  O   UNL     1      31.412  12.795  -5.105  1.00  0.00    -0.492 OA
BRANCH  16  17
ATOM     17  C   UNL     1      30.018  12.729  -4.779  1.00  0.00     0.245 C
BRANCH  17  18
ATOM     18  C   UNL     1      29.100  13.487  -5.772  1.00  0.00     0.126 C
BRANCH  18  19
ATOM     19  N   UNL     1      27.643  13.490  -5.524  1.00  0.00    -0.297 NA
ATOM     20  C   UNL     1      27.151  14.685  -4.836  1.00  0.00     0.085 C
ATOM     21  C   UNL     1      26.850  13.404  -6.766  1.00  0.00     0.056 C
ATOM     22  C   UNL     1      25.650  14.547  -4.992  1.00  0.00     0.017 C
ATOM     23  C   UNL     1      25.476  13.988  -6.395  1.00  0.00     0.020 C
BRANCH  21  24
ATOM     24  C   UNL     1      26.766  12.022  -7.437  1.00  0.00     0.019 C
ATOM     25  G   UNL     1      26.298  11.978  -8.899  1.00  0.00     0.000 C
ENDBRANCH  21  24
ENDBRANCH  18  19
ENDBRANCH  17  18
ENDBRANCH  16  17
ENDBRANCH   1  16
BRANCH   4  26
ATOM     26  N   UNL     1      33.508  17.971  -5.134  1.00  0.00    -0.324 N
ATOM     27  H   UNL     1      34.490  18.065  -4.930  1.00  0.00     0.170 HD
BRANCH  26  28
ATOM     28  C   UNL     1      32.955  19.206  -5.451  1.00  0.00     0.227 A
ATOM     29  N   UNL     1      33.744  20.271  -5.221  1.00  0.00    -0.221 NA
ATOM     30  N   UNL     1      31.689  19.310  -5.872  1.00  0.00    -0.212 NA
ATOM     31  C   UNL     1      33.223  21.489  -5.459  1.00  0.00     0.117 A
ATOM     32  C   UNL     1      31.200  20.547  -6.075  1.00  0.00     0.086 A
ATOM     33  C   UNL     1      31.936  21.692  -5.884  1.00  0.00     0.050 A
BRANCH  32  34
ATOM     34  C   UNL     1      29.781  20.601  -6.410  1.00  0.00     0.053 A
ATOM     35  C   UNL     1      29.008  21.712  -6.687  1.00  0.00     0.022 A
ATOM     36  S   UNL     1      28.863  19.161  -6.501  1.00  0.00    -0.136 S
ATOM     37  C   UNL     1      27.641  21.377  -6.908  1.00  0.00     0.018 A
ATOM     38  C   UNL     1      27.407  20.020  -6.797  1.00  0.00     0.031 A
BRANCH  38  39
ATOM     39  C   UNL     1      26.089  19.308  -6.914  1.00  0.00     0.207 C
BRANCH  39  40
ATOM     40  O   UNL     1      25.981  18.648  -8.173  1.00  0.00    -0.372 OA
BRANCH  40  41
ATOM     41  C   UNL     1      26.193  17.236  -8.117  1.00  0.00     0.191 C
ATOM     42  G   UNL     1      25.154  16.502  -8.943  1.00  0.00     0.000 C
ENDBRANCH  40  41
ENDBRANCH  39  40
ENDBRANCH  38  39
ENDBRANCH  32  34
ENDBRANCH  26  28
ENDBRANCH   4  26
TORSDOF 0
ENDMDL
MODEL 5
REMARK VINA RESULT:      -7.2      3.322      9.391
REMARK SMILES C1=C2\CCC[C@H]3CCCN3CCOc3ccc(cc3COC/1)Nc1nccc(n1)-c1ccc(s1)COC2
REMARK SMILES IDX 14 1 15 2 16 3 17 4 18 5 19 6 20 7 21 8 22 9 1 10 2 11 3 13
REMARK SMILES IDX 4 14 13 16 12 17 11 18 10 19 9 20 6 21 8 22 7 23 5 24 23 26
REMARK SMILES IDX 24 28 25 29 29 30 26 31 28 32 27 33 30 34 31 35 34 36 32 37
REMARK SMILES IDX 33 38 35 39 36 40 37 41
REMARK H PARENT 23 27
REMARK Flexibility Score:   91.800
ROOT
ATOM      1  C   UNL     1      30.414  15.922  -3.920  1.00  0.00     0.125 A
ATOM      2  C   UNL     1      31.443  16.015  -2.983  1.00  0.00     0.049 A
ATOM      3  C   UNL     1      32.328  14.947  -2.808  1.00  0.00     0.030 A
ATOM      4  C   UNL     1      32.200  13.773  -3.559  1.00  0.00     0.042 A
ATOM      5  C   UNL     1      31.145  13.688  -4.476  1.00  0.00     0.036 A
ATOM      6  C   UNL     1      30.220  14.737  -4.642  1.00  0.00     0.022 A
ENDROOT
BRANCH   6   7
ATOM      7  C   UNL     1      29.004  14.581  -5.524  1.00  0.00     0.200 C
BRANCH   7   8
ATOM      8  O   UNL     1      28.039  13.730  -4.914  1.00  0.00    -0.373 OA
BRANCH   8   9
ATOM      9  C   UNL     1      27.345  12.927  -5.856  1.00  0.00     0.188 C
BRANCH   9  10
ATOM     10  C   UNL     1      27.646  13.483  -7.209  1.00  0.00     0.003 C
ATOM     11  C   UNL     1      26.756  14.036  -8.063  1.00  0.00    -0.046 C
ATOM     12  G   UNL     1      27.163  14.617  -9.404  1.00  0.00     0.000 C
BRANCH  11  13
ATOM     13  C   UNL     1      25.289  14.213  -7.709  1.00  0.00     0.033 C
BRANCH  13  14
ATOM     14  C   UNL     1      24.363  13.495  -8.691  1.00  0.00     0.006 C
ATOM     15  G   UNL     1      24.625  11.983  -8.763  1.00  0.00     0.000 C
ENDBRANCH  13  14
ENDBRANCH  11  13
ENDBRANCH   9  10
ENDBRANCH   8   9
ENDBRANCH   7   8
ENDBRANCH   6   7
BRANCH   1  16
ATOM     16  O   UNL     1      29.518  16.942  -4.102  1.00  0.00    -0.492 OA
BRANCH  16  17
ATOM     17  C   UNL     1      29.880  17.857  -5.144  1.00  0.00     0.245 C
BRANCH  17  18
ATOM     18  C   UNL     1      30.564  19.153  -4.636  1.00  0.00     0.126 C
BRANCH  18  19
ATOM     19  N   UNL     1      31.553  19.818  -5.511  1.00  0.00    -0.297 NA
ATOM     20  C   UNL     1      31.539  21.281  -5.434  1.00  0.00     0.085 C
ATOM     21  C   UNL     1      32.943  19.428  -5.206  1.00  0.00     0.056 C
ATOM     22  C   UNL     1      32.809  21.651  -6.173  1.00  0.00     0.017 C
ATOM     23  C   UNL     1      33.803  20.579  -5.755  1.00  0.00     0.020 C
BRANCH  21  24
ATOM     24  C   UNL     1      33.393  18.041  -5.697  1.00  0.00     0.019 C
ATOM     25  G   UNL     1      33.495  17.832  -7.215  1.00  0.00     0.000 C
ENDBRANCH  21  24
ENDBRANCH  18  19
ENDBRANCH  17  18
ENDBRANCH  16  17
ENDBRANCH   1  16
BRANCH   4  26
ATOM     26  N   UNL     1      33.152  12.761  -3.401  1.00  0.00    -0.324 N
ATOM     27  H   UNL     1      34.123  13.013  -3.482  1.00  0.00     0.170 HD
BRANCH  26  28
ATOM     28  C   UNL     1      33.021  11.407  -3.113  1.00  0.00     0.227 A
ATOM     29  N   UNL     1      33.957  10.895  -2.294  1.00  0.00    -0.221 NA
ATOM     30  N   UNL     1      32.073  10.664  -3.695  1.00  0.00    -0.212 NA
ATOM     31  C   UNL     1      33.901   9.575  -2.039  1.00  0.00     0.117 A
ATOM     32  C   UNL     1      32.067   9.344  -3.432  1.00  0.00     0.086 A
ATOM     33  C   UNL     1      32.971   8.736  -2.594  1.00  0.00     0.050 A
BRANCH  32  34
ATOM     34  C   UNL     1      31.092   8.569  -4.192  1.00  0.00     0.053 A
ATOM     35  C   UNL     1      30.927   7.198  -4.228  1.00  0.00     0.022 A
ATOM     36  S   UNL     1      29.959   9.361  -5.199  1.00  0.00    -0.136 S
ATOM     37  C   UNL     1      29.908   6.800  -5.139  1.00  0.00     0.018 A
ATOM     38  C   UNL     1      29.319   7.877  -5.773  1.00  0.00     0.031 A
BRANCH  38  39
ATOM     39  C   UNL     1      28.251   7.842  -6.830  1.00  0.00     0.207 C
BRANCH  39  40
ATOM     40  O   UNL     1      28.724   8.418  -8.046  1.00  0.00    -0.372 OA
BRANCH  40  41
ATOM     41  C   UNL     1      27.823   8.290  -9.147  1.00  0.00     0.191 C
ATOM     42  G   UNL     1      27.428   9.653  -9.682  1.00  0.00     0.000 C
ENDBRANCH  40  41
ENDBRANCH  39  40
ENDBRANCH  38  39
ENDBRANCH  32  34
ENDBRANCH  26  28
ENDBRANCH   4  26
TORSDOF 0
ENDMDL
MODEL 6
REMARK VINA RESULT:      -7.2      4.135      7.176
REMARK SMILES C1=C2\CCC[C@H]3CCCN3CCOc3ccc(cc3COC/1)Nc1nccc(n1)-c1ccc(s1)COC2
REMARK SMILES IDX 14 1 15 2 16 3 17 4 18 5 19 6 20 7 21 8 22 9 1 10 2 11 3 13
REMARK SMILES IDX 4 14 13 16 12 17 11 18 10 19 9 20 6 21 8 22 7 23 5 24 23 26
REMARK SMILES IDX 24 28 25 29 29 30 26 31 28 32 27 33 30 34 31 35 34 36 32 37
REMARK SMILES IDX 33 38 35 39 36 40 37 41
REMARK H PARENT 23 27
REMARK Flexibility Score:   91.800
ROOT
ATOM      1  C   UNL     1      29.205   8.253  -5.639  1.00  0.00     0.125 A
ATOM      2  C   UNL     1      28.065   8.365  -6.435  1.00  0.00     0.049 A
ATOM      3  C   UNL     1      27.348   9.565  -6.465  1.00  0.00     0.030 A
ATOM      4  C   UNL     1      27.754  10.668  -5.704  1.00  0.00     0.042 A
ATOM      5  C   UNL     1      28.886  10.528  -4.891  1.00  0.00     0.036 A
ATOM      6  C   UNL     1      29.601   9.316  -4.818  1.00  0.00     0.022 A
ENDROOT
BRANCH   6   7
ATOM      7  C   UNL     1      30.730   9.129  -3.832  1.00  0.00     0.200 C
BRANCH   7   8
ATOM      8  O   UNL     1      31.905   9.804  -4.268  1.00  0.00    -0.373 OA
BRANCH   8   9
ATOM      9  C   UNL     1      32.741  10.198  -3.192  1.00  0.00     0.188 C
BRANCH   9  10
ATOM     10  C   UNL     1      32.668  11.687  -3.105  1.00  0.00     0.003 C
ATOM     11  C   UNL     1      33.706  12.530  -2.912  1.00  0.00    -0.046 C
ATOM     12  G   UNL     1      33.541  14.038  -2.882  1.00  0.00     0.000 C
BRANCH  11  13
ATOM     13  C   UNL     1      35.142  12.043  -2.809  1.00  0.00     0.033 C
BRANCH  13  14
ATOM     14  C   UNL     1      35.619  11.939  -1.360  1.00  0.00     0.006 C
ATOM     15  G   UNL     1      35.589  10.500  -0.823  1.00  0.00     0.000 C
ENDBRANCH  13  14
ENDBRANCH  11  13
ENDBRANCH   9  10
ENDBRANCH   8   9
ENDBRANCH   7   8
ENDBRANCH   6   7
BRANCH   1  16
ATOM     16  O   UNL     1      29.918   7.085  -5.572  1.00  0.00    -0.492 OA
BRANCH  16  17
ATOM     17  C   UNL     1      29.652   6.177  -6.648  1.00  0.00     0.245 C
BRANCH  17  18
ATOM     18  C   UNL     1      29.277   4.744  -6.186  1.00  0.00     0.126 C
BRANCH  18  19
ATOM     19  N   UNL     1      27.859   4.443  -5.902  1.00  0.00    -0.297 NA
ATOM     20  C   UNL     1      27.395   4.905  -4.592  1.00  0.00     0.085 C
ATOM     21  C   UNL     1      26.935   5.054  -6.877  1.00  0.00     0.056 C
ATOM     22  C   UNL     1      25.894   4.736  -4.708  1.00  0.00     0.017 C
ATOM     23  C   UNL     1      25.588   5.140  -6.141  1.00  0.00     0.020 C
BRANCH  21  24
ATOM     24  C   UNL     1      26.838   4.374  -8.254  1.00  0.00     0.019 C
ATOM     25  G   UNL     1      26.952   5.276  -9.493  1.00  0.00     0.000 C
ENDBRANCH  21  24
ENDBRANCH  18  19
ENDBRANCH  17  18
ENDBRANCH  16  17
ENDBRANCH   1  16
BRANCH   4  26
ATOM     26  N   UNL     1      27.048  11.869  -5.822  1.00  0.00    -0.324 N
ATOM     27  H   UNL     1      26.105  11.827  -6.173  1.00  0.00     0.170 HD
BRANCH  26  28
ATOM     28  C   UNL     1      27.395  13.179  -5.511  1.00  0.00     0.227 A
ATOM     29  N   UNL     1      26.385  13.965  -5.100  1.00  0.00    -0.221 NA
ATOM     30  N   UNL     1      28.641  13.629  -5.703  1.00  0.00    -0.212 NA
ATOM     31  C   UNL     1      26.669  15.256  -4.847  1.00  0.00     0.117 A
ATOM     32  C   UNL     1      28.877  14.931  -5.461  1.00  0.00     0.086 A
ATOM     33  C   UNL     1      27.912  15.806  -5.021  1.00  0.00     0.050 A
BRANCH  32  34
ATOM     34  C   UNL     1      30.218  15.389  -5.807  1.00  0.00     0.053 A
ATOM     35  C   UNL     1      31.404  14.682  -5.759  1.00  0.00     0.022 A
ATOM     36  S   UNL     1      30.466  16.989  -6.356  1.00  0.00    -0.136 S
ATOM     37  C   UNL     1      32.527  15.485  -6.112  1.00  0.00     0.018 A
ATOM     38  C   UNL     1      32.168  16.783  -6.423  1.00  0.00     0.031 A
BRANCH  38  39
ATOM     39  C   UNL     1      33.080  17.919  -6.789  1.00  0.00     0.207 C
BRANCH  39  40
ATOM     40  O   UNL     1      32.546  19.162  -6.338  1.00  0.00    -0.372 OA
BRANCH  40  41
ATOM     41  C   UNL     1      33.455  20.260  -6.427  1.00  0.00     0.191 C
ATOM     42  G   UNL     1      33.115  21.325  -5.401  1.00  0.00     0.000 C
ENDBRANCH  40  41
ENDBRANCH  39  40
ENDBRANCH  38  39
ENDBRANCH  32  34
ENDBRANCH  26  28
ENDBRANCH   4  26
TORSDOF 0
ENDMDL
MODEL 7
REMARK VINA RESULT:      -7.1      3.298      7.967
REMARK SMILES C1=C2\CCC[C@H]3CCCN3CCOc3ccc(cc3COC/1)Nc1nccc(n1)-c1ccc(s1)COC2
REMARK SMILES IDX 14 1 15 2 16 3 17 4 18 5 19 6 20 7 21 8 22 9 1 10 2 11 3 13
REMARK SMILES IDX 4 14 13 16 12 17 11 18 10 19 9 20 6 21 8 22 7 23 5 24 23 26
REMARK SMILES IDX 24 28 25 29 29 30 26 31 28 32 27 33 30 34 31 35 34 36 32 37
REMARK SMILES IDX 33 38 35 39 36 40 37 41
REMARK H PARENT 23 27
REMARK Flexibility Score:   91.800
ROOT
ATOM      1  C   UNL     1      30.890   9.218  -4.100  1.00  0.00     0.125 A
ATOM      2  C   UNL     1      30.865  10.589  -3.844  1.00  0.00     0.049 A
ATOM      3  C   UNL     1      29.815  11.373  -4.332  1.00  0.00     0.030 A
ATOM      4  C   UNL     1      28.779  10.806  -5.083  1.00  0.00     0.042 A
ATOM      5  C   UNL     1      28.835   9.432  -5.352  1.00  0.00     0.036 A
ATOM      6  C   UNL     1      29.902   8.631  -4.901  1.00  0.00     0.022 A
ENDROOT
BRANCH   6   7
ATOM      7  C   UNL     1      30.029   7.185  -5.317  1.00  0.00     0.200 C
BRANCH   7   8
ATOM      8  O   UNL     1      28.752   6.621  -5.597  1.00  0.00    -0.373 OA
BRANCH   8   9
ATOM      9  C   UNL     1      28.557   6.368  -6.979  1.00  0.00     0.188 C
BRANCH   9  10
ATOM     10  C   UNL     1      27.129   6.684  -7.283  1.00  0.00     0.003 C
ATOM     11  C   UNL     1      26.674   7.759  -7.964  1.00  0.00    -0.046 C
ATOM     12  G   UNL     1      25.203   7.975  -8.263  1.00  0.00     0.000 C
BRANCH  11  13
ATOM     13  C   UNL     1      27.608   8.791  -8.574  1.00  0.00     0.033 C
BRANCH  13  14
ATOM     14  C   UNL     1      27.707   8.661 -10.094  1.00  0.00     0.006 C
ATOM     15  G   UNL     1      28.218   9.941 -10.771  1.00  0.00     0.000 C
ENDBRANCH  13  14
ENDBRANCH  11  13
ENDBRANCH   9  10
ENDBRANCH   8   9
ENDBRANCH   7   8
ENDBRANCH   6   7
BRANCH   1  16
ATOM     16  O   UNL     1      31.914   8.426  -3.653  1.00  0.00    -0.492 OA
BRANCH  16  17
ATOM     17  C   UNL     1      32.513   8.881  -2.433  1.00  0.00     0.245 C
BRANCH  17  18
ATOM     18  C   UNL     1      33.973   9.379  -2.595  1.00  0.00     0.126 C
BRANCH  18  19
ATOM     19  N   UNL     1      34.390  10.591  -1.860  1.00  0.00    -0.297 NA
ATOM     20  C   UNL     1      35.623  10.432  -1.086  1.00  0.00     0.085 C
ATOM     21  C   UNL     1      34.637  11.744  -2.748  1.00  0.00     0.056 C
ATOM     22  C   UNL     1      35.950  11.864  -0.710  1.00  0.00     0.017 C
ATOM     23  C   UNL     1      35.573  12.664  -1.946  1.00  0.00     0.020 C
BRANCH  21  24
ATOM     24  C   UNL     1      33.396  12.466  -3.301  1.00  0.00     0.019 C
ATOM     25  G   UNL     1      32.937  13.736  -2.568  1.00  0.00     0.000 C
ENDBRANCH  21  24
ENDBRANCH  18  19
ENDBRANCH  17  18
ENDBRANCH  16  17
ENDBRANCH   1  16
BRANCH   4  26
ATOM     26  N   UNL     1      27.714  11.616  -5.489  1.00  0.00    -0.324 N
ATOM     27  H   UNL     1      26.919  11.168  -5.915  1.00  0.00     0.170 HD
BRANCH  26  28
ATOM     28  C   UNL     1      27.509  12.988  -5.394  1.00  0.00     0.227 A
ATOM     29  N   UNL     1      26.229  13.374  -5.248  1.00  0.00    -0.221 NA
ATOM     30  N   UNL     1      28.522  13.850  -5.534  1.00  0.00    -0.212 NA
ATOM     31  C   UNL     1      25.982  14.696  -5.213  1.00  0.00     0.117 A
ATOM     32  C   UNL     1      28.229  15.163  -5.517  1.00  0.00     0.086 A
ATOM     33  C   UNL     1      26.954  15.652  -5.354  1.00  0.00     0.050 A
BRANCH  32  34
ATOM     34  C   UNL     1      29.353  16.049  -5.799  1.00  0.00     0.053 A
ATOM     35  C   UNL     1      30.685  15.719  -5.962  1.00  0.00     0.022 A
ATOM     36  S   UNL     1      29.101  17.732  -5.970  1.00  0.00    -0.136 S
ATOM     37  C   UNL     1      31.505  16.866  -6.162  1.00  0.00     0.018 A
ATOM     38  C   UNL     1      30.779  18.042  -6.149  1.00  0.00     0.031 A
BRANCH  38  39
ATOM     39  C   UNL     1      31.307  19.442  -6.276  1.00  0.00     0.207 C
BRANCH  39  40
ATOM     40  O   UNL     1      30.491  20.358  -5.548  1.00  0.00    -0.372 OA
BRANCH  40  41
ATOM     41  C   UNL     1      31.184  21.511  -5.068  1.00  0.00     0.191 C
ATOM     42  G   UNL     1      32.424  21.779  -5.900  1.00  0.00     0.000 C
ENDBRANCH  40  41
ENDBRANCH  39  40
ENDBRANCH  38  39
ENDBRANCH  32  34
ENDBRANCH  26  28
ENDBRANCH   4  26
TORSDOF 0
ENDMDL
MODEL 8
REMARK VINA RESULT:      -7.1      3.187      8.730
REMARK SMILES C1=C2\CCC[C@H]3CCCN3CCOc3ccc(cc3COC/1)Nc1nccc(n1)-c1ccc(s1)COC2
REMARK SMILES IDX 14 1 15 2 16 3 17 4 18 5 19 6 20 7 21 8 22 9 1 10 2 11 3 13
REMARK SMILES IDX 4 14 13 16 12 17 11 18 10 19 9 20 6 21 8 22 7 23 5 24 23 26
REMARK SMILES IDX 24 28 25 29 29 30 26 31 28 32 27 33 30 34 31 35 34 36 32 37
REMARK SMILES IDX 33 38 35 39 36 40 37 41
REMARK H PARENT 23 27
REMARK Flexibility Score:   91.800
ROOT
ATOM      1  C   UNL     1      32.301  15.930  -5.044  1.00  0.00     0.125 A
ATOM      2  C   UNL     1      33.273  16.223  -4.088  1.00  0.00     0.049 A
ATOM      3  C   UNL     1      33.791  15.204  -3.282  1.00  0.00     0.030 A
ATOM      4  C   UNL     1      33.346  13.883  -3.414  1.00  0.00     0.042 A
ATOM      5  C   UNL     1      32.351  13.614  -4.361  1.00  0.00     0.036 A
ATOM      6  C   UNL     1      31.790  14.631  -5.158  1.00  0.00     0.022 A
ENDROOT
BRANCH   6   7
ATOM      7  C   UNL     1      30.618  14.358  -6.071  1.00  0.00     0.200 C
BRANCH   7   8
ATOM      8  O   UNL     1      29.441  15.002  -5.596  1.00  0.00    -0.373 OA
BRANCH   8   9
ATOM      9  C   UNL     1      28.826  14.299  -4.528  1.00  0.00     0.188 C
BRANCH   9  10
ATOM     10  C   UNL     1      27.352  14.491  -4.671  1.00  0.00     0.003 C
ATOM     11  C   UNL     1      26.534  13.816  -5.510  1.00  0.00    -0.046 C
ATOM     12  G   UNL     1      25.036  14.050  -5.555  1.00  0.00     0.000 C
BRANCH  11  13
ATOM     13  C   UNL     1      27.034  12.697  -6.408  1.00  0.00     0.033 C
BRANCH  13  14
ATOM     14  C   UNL     1      26.487  12.805  -7.831  1.00  0.00     0.006 C
ATOM     15  G   UNL     1      27.340  13.711  -8.732  1.00  0.00     0.000 C
ENDBRANCH  13  14
ENDBRANCH  11  13
ENDBRANCH   9  10
ENDBRANCH   8   9
ENDBRANCH   7   8
ENDBRANCH   6   7
BRANCH   1  16
ATOM     16  O   UNL     1      31.760  16.908  -5.835  1.00  0.00    -0.492 OA
BRANCH  16  17
ATOM     17  C   UNL     1      31.231  18.023  -5.105  1.00  0.00     0.245 C
BRANCH  17  18
ATOM     18  C   UNL     1      31.031  19.301  -5.961  1.00  0.00     0.126 C
BRANCH  18  19
ATOM     19  N   UNL     1      29.746  20.023  -5.860  1.00  0.00    -0.297 NA
ATOM     20  C   UNL     1      29.815  21.433  -6.251  1.00  0.00     0.085 C
ATOM     21  C   UNL     1      28.690  19.437  -6.708  1.00  0.00     0.056 C
ATOM     22  C   UNL     1      28.350  21.812  -6.335  1.00  0.00     0.017 C
ATOM     23  C   UNL     1      27.685  20.581  -6.929  1.00  0.00     0.020 C
BRANCH  21  24
ATOM     24  C   UNL     1      28.038  18.140  -6.199  1.00  0.00     0.019 C
ATOM     25  G   UNL     1      27.410  17.210  -7.248  1.00  0.00     0.000 C
ENDBRANCH  21  24
ENDBRANCH  18  19
ENDBRANCH  17  18
ENDBRANCH  16  17
ENDBRANCH   1  16
BRANCH   4  26
ATOM     26  N   UNL     1      33.944  12.887  -2.636  1.00  0.00    -0.324 N
ATOM     27  H   UNL     1      34.670  13.164  -1.994  1.00  0.00     0.170 HD
BRANCH  26  28
ATOM     28  C   UNL     1      33.710  11.519  -2.548  1.00  0.00     0.227 A
ATOM     29  N   UNL     1      34.670  10.805  -1.932  1.00  0.00    -0.221 NA
ATOM     30  N   UNL     1      32.639  10.962  -3.123  1.00  0.00    -0.212 NA
ATOM     31  C   UNL     1      34.508   9.470  -1.879  1.00  0.00     0.117 A
ATOM     32  C   UNL     1      32.528   9.622  -3.068  1.00  0.00     0.086 A
ATOM     33  C   UNL     1      33.448   8.812  -2.445  1.00  0.00     0.050 A
BRANCH  32  34
ATOM     34  C   UNL     1      31.408   9.065  -3.819  1.00  0.00     0.053 A
ATOM     35  C   UNL     1      31.144   7.740  -4.107  1.00  0.00     0.022 A
ATOM     36  S   UNL     1      30.209  10.097  -4.469  1.00  0.00    -0.136 S
ATOM     37  C   UNL     1      29.987   7.584  -4.923  1.00  0.00     0.018 A
ATOM     38  C   UNL     1      29.396   8.794  -5.233  1.00  0.00     0.031 A
BRANCH  38  39
ATOM     39  C   UNL     1      28.197   9.026  -6.108  1.00  0.00     0.207 C
BRANCH  39  40
ATOM     40  O   UNL     1      27.047   8.372  -5.574  1.00  0.00    -0.372 OA
BRANCH  40  41
ATOM     41  C   UNL     1      26.148   7.864  -6.561  1.00  0.00     0.191 C
ATOM     42  G   UNL     1      26.338   8.582  -7.884  1.00  0.00     0.000 C
ENDBRANCH  40  41
ENDBRANCH  39  40
ENDBRANCH  38  39
ENDBRANCH  32  34
ENDBRANCH  26  28
ENDBRANCH   4  26
TORSDOF 0
ENDMDL
MODEL 9
REMARK VINA RESULT:      -7.1      3.354      9.304
REMARK SMILES C1=C2\CCC[C@H]3CCCN3CCOc3ccc(cc3COC/1)Nc1nccc(n1)-c1ccc(s1)COC2
REMARK SMILES IDX 14 1 15 2 16 3 17 4 18 5 19 6 20 7 21 8 22 9 1 10 2 11 3 13
REMARK SMILES IDX 4 14 13 16 12 17 11 18 10 19 9 20 6 21 8 22 7 23 5 24 23 26
REMARK SMILES IDX 24 28 25 29 29 30 26 31 28 32 27 33 30 34 31 35 34 36 32 37
REMARK SMILES IDX 33 38 35 39 36 40 37 41
REMARK H PARENT 23 27
REMARK Flexibility Score:   91.800
ROOT
ATOM      1  C   UNL     1      31.596  15.748  -4.854  1.00  0.00     0.125 A
ATOM      2  C   UNL     1      32.669  16.044  -4.013  1.00  0.00     0.049 A
ATOM      3  C   UNL     1      33.388  15.010  -3.407  1.00  0.00     0.030 A
ATOM      4  C   UNL     1      33.048  13.669  -3.625  1.00  0.00     0.042 A
ATOM      5  C   UNL     1      31.951  13.394  -4.451  1.00  0.00     0.036 A
ATOM      6  C   UNL     1      31.191  14.421  -5.042  1.00  0.00     0.022 A
ENDROOT
BRANCH   6   7
ATOM      7  C   UNL     1      29.925  14.119  -5.810  1.00  0.00     0.200 C
BRANCH   7   8
ATOM      8  O   UNL     1      28.997  13.403  -5.002  1.00  0.00    -0.373 OA
BRANCH   8   9
ATOM      9  C   UNL     1      27.851  14.173  -4.672  1.00  0.00     0.188 C
BRANCH   9  10
ATOM     10  C   UNL     1      26.754  13.735  -5.586  1.00  0.00     0.003 C
ATOM     11  C   UNL     1      26.187  14.471  -6.567  1.00  0.00    -0.046 C
ATOM     12  G   UNL     1      25.104  13.924  -7.477  1.00  0.00     0.000 C
BRANCH  11  13
ATOM     13  C   UNL     1      26.657  15.876  -6.905  1.00  0.00     0.033 C
BRANCH  13  14
ATOM     14  C   UNL     1      26.153  16.345  -8.270  1.00  0.00     0.006 C
ATOM     15  G   UNL     1      27.214  16.217  -9.374  1.00  0.00     0.000 C
ENDBRANCH  13  14
ENDBRANCH  11  13
ENDBRANCH   9  10
ENDBRANCH   8   9
ENDBRANCH   7   8
ENDBRANCH   6   7
BRANCH   1  16
ATOM     16  O   UNL     1      30.858  16.738  -5.447  1.00  0.00    -0.492 OA
BRANCH  16  17
ATOM     17  C   UNL     1      29.862  17.315  -4.593  1.00  0.00     0.245 C
BRANCH  17  18
ATOM     18  C   UNL     1      28.979  18.385  -5.285  1.00  0.00     0.126 C
BRANCH  18  19
ATOM     19  N   UNL     1      29.415  19.796  -5.242  1.00  0.00    -0.297 NA
ATOM     20  C   UNL     1      30.660  20.020  -4.504  1.00  0.00     0.085 C
ATOM     21  C   UNL     1      29.653  20.365  -6.583  1.00  0.00     0.056 C
ATOM     22  C   UNL     1      31.001  21.448  -4.879  1.00  0.00     0.017 C
ATOM     23  C   UNL     1      30.608  21.547  -6.344  1.00  0.00     0.020 C
BRANCH  21  24
ATOM     24  C   UNL     1      28.407  20.742  -7.403  1.00  0.00     0.019 C
ATOM     25  G   UNL     1      27.136  21.108  -6.622  1.00  0.00     0.000 C
ENDBRANCH  21  24
ENDBRANCH  18  19
ENDBRANCH  17  18
ENDBRANCH  16  17
ENDBRANCH   1  16
BRANCH   4  26
ATOM     26  N   UNL     1      33.840  12.668  -3.055  1.00  0.00    -0.324 N
ATOM     27  H   UNL     1      34.746  12.931  -2.701  1.00  0.00     0.170 HD
BRANCH  26  28
ATOM     28  C   UNL     1      33.608  11.314  -2.845  1.00  0.00     0.227 A
ATOM     29  N   UNL     1      34.554  10.665  -2.142  1.00  0.00    -0.221 NA
ATOM     30  N   UNL     1      32.553  10.700  -3.392  1.00  0.00    -0.212 NA
ATOM     31  C   UNL     1      34.395   9.340  -1.968  1.00  0.00     0.117 A
ATOM     32  C   UNL     1      32.445   9.370  -3.215  1.00  0.00     0.086 A
ATOM     33  C   UNL     1      33.351   8.627  -2.497  1.00  0.00     0.050 A
BRANCH  32  34
ATOM     34  C   UNL     1      31.346   8.739  -3.938  1.00  0.00     0.053 A
ATOM     35  C   UNL     1      31.079   7.392  -4.086  1.00  0.00     0.022 A
ATOM     36  S   UNL     1      30.182   9.699  -4.743  1.00  0.00    -0.136 S
ATOM     37  C   UNL     1      29.949   7.153  -4.920  1.00  0.00     0.018 A
ATOM     38  C   UNL     1      29.382   8.324  -5.385  1.00  0.00     0.031 A
BRANCH  38  39
ATOM     39  C   UNL     1      28.217   8.464  -6.323  1.00  0.00     0.207 C
BRANCH  39  40
ATOM     40  O   UNL     1      26.988   8.498  -5.600  1.00  0.00    -0.372 OA
BRANCH  40  41
ATOM     41  C   UNL     1      26.020   7.543  -6.040  1.00  0.00     0.191 C
ATOM     42  G   UNL     1      26.387   6.149  -5.569  1.00  0.00     0.000 C
ENDBRANCH  40  41
ENDBRANCH  39  40
ENDBRANCH  38  39
ENDBRANCH  32  34
ENDBRANCH  26  28
ENDBRANCH   4  26
TORSDOF 0
ENDMDL
