MODEL 1
REMARK VINA RESULT:      -8.6      0.000      0.000
REMARK SMILES N#C[C@H]1C[C@H]2CNCC3(CC3)c3cnc4[nH]cc(c4n3)C(=O)N[C@H](C3CC3)C(=O)N2C1
REMARK SMILES IDX 12 1 13 2 14 3 15 4 16 5 17 6 18 7 19 8 20 9 21 11 23 12
REMARK SMILES IDX 22 13 24 15 28 16 29 17 30 18 1 19 2 20 3 21 4 22 31 23 5 24
REMARK SMILES IDX 25 26 26 27 27 28 9 29 10 30 11 31 8 32 7 33 6 35
REMARK H PARENT 16 10 23 14 7 34
REMARK Flexibility Score:  122.900
ROOT
ATOM      1  C   UNL     1      33.764  11.365  -2.470  1.00  0.00     0.067 A
ATOM      2  C   UNL     1      35.070  11.876  -2.338  1.00  0.00     0.138 A
ATOM      3  N   UNL     1      35.455  13.184  -2.452  1.00  0.00    -0.235 NA
ATOM      4  C   UNL     1      34.394  13.957  -2.748  1.00  0.00     0.156 A
ATOM      5  N   UNL     1      34.403  15.301  -2.998  1.00  0.00    -0.344 N
ATOM      6  C   UNL     1      33.133  15.716  -3.334  1.00  0.00     0.100 A
ATOM      7  C   UNL     1      32.281  14.622  -3.267  1.00  0.00     0.085 A
ATOM      8  C   UNL     1      33.087  13.519  -2.878  1.00  0.00     0.120 A
ATOM      9  N   UNL     1      32.741  12.221  -2.694  1.00  0.00    -0.246 NA
ATOM     10  H   UNL     1      35.234  15.874  -2.976  1.00  0.00     0.168 HD
ENDROOT
BRANCH   7  11
ATOM     11  C   UNL     1      30.862  14.595  -3.597  1.00  0.00     0.255 C
ATOM     12  N   UNL     1      30.609  14.891  -4.908  1.00  0.00    -0.340 N
ATOM     13  O   UNL     1      29.992  14.367  -2.763  1.00  0.00    -0.269 OA
ATOM     14  H   UNL     1      31.411  15.075  -5.510  1.00  0.00     0.164 HD
BRANCH  12  15
ATOM     15  C   UNL     1      29.306  15.180  -5.471  1.00  0.00     0.175 C
BRANCH  15  16
ATOM     16  C   UNL     1      29.608  16.243  -6.560  1.00  0.00     0.245 C
ATOM     17  O   UNL     1      29.172  16.106  -7.709  1.00  0.00    -0.272 OA
BRANCH  16  18
ATOM     18  N   UNL     1      30.466  17.276  -6.241  1.00  0.00    -0.335 N
ATOM     19  N   UNL     1      33.597  20.383  -6.458  1.00  0.00    -0.198 NA
ATOM     20  C   UNL     1      33.112  19.424  -6.020  1.00  0.00     0.067 C
ATOM     21  C   UNL     1      32.498  18.219  -5.446  1.00  0.00     0.114 C
ATOM     22  C   UNL     1      31.329  18.552  -4.502  1.00  0.00     0.047 C
ATOM     23  C   UNL     1      31.889  17.323  -6.530  1.00  0.00     0.138 C
ATOM     24  C   UNL     1      30.065  18.358  -5.349  1.00  0.00     0.100 C
ATOM     25  G   UNL     1      29.673  19.679  -6.083  1.00  0.00     0.000 C
ENDBRANCH  16  18
ENDBRANCH  15  16
BRANCH  15  26
ATOM     26  C   UNL     1      28.716  13.932  -6.070  1.00  0.00     0.021 C
ATOM     27  C   UNL     1      28.482  12.699  -5.231  1.00  0.00     0.006 C
ATOM     28  C   UNL     1      27.311  13.505  -5.720  1.00  0.00     0.006 C
ENDBRANCH  15  26
ENDBRANCH  12  15
ENDBRANCH   7  11
BRANCH   1  29
ATOM     29  C   UNL     1      33.427   9.855  -2.387  1.00  0.00     0.027 C
ATOM     30  C   UNL     1      34.466   8.803  -2.762  1.00  0.00     0.016 C
ATOM     31  C   UNL     1      34.144   9.040  -1.315  1.00  0.00     0.016 C
BRANCH  29  32
ATOM     32  C   UNL     1      31.963   9.474  -2.671  1.00  0.00     0.094 C
BRANCH  32  33
ATOM     33  N   UNL     1      31.583   9.870  -4.027  1.00  0.00    -0.314 NA
ATOM     34  H   UNL     1      32.427   9.981  -4.587  1.00  0.00     0.122 HD
BRANCH  33  35
ATOM     35  C   UNL     1      30.694   8.921  -4.706  1.00  0.00     0.106 C
ATOM     36  G   UNL     1      30.780   7.405  -4.345  1.00  0.00     0.000 C
ENDBRANCH  33  35
ENDBRANCH  32  33
ENDBRANCH  29  32
ENDBRANCH   1  29
TORSDOF 1
ENDMDL
MODEL 2
REMARK VINA RESULT:      -8.3      1.364      1.735
REMARK SMILES N#C[C@H]1C[C@H]2CNCC3(CC3)c3cnc4[nH]cc(c4n3)C(=O)N[C@H](C3CC3)C(=O)N2C1
REMARK SMILES IDX 12 1 13 2 14 3 15 4 16 5 17 6 18 7 19 8 20 9 21 11 23 12
REMARK SMILES IDX 22 13 24 15 28 16 29 17 30 18 1 19 2 20 3 21 4 22 31 23 5 24
REMARK SMILES IDX 25 26 26 27 27 28 9 29 10 30 11 31 8 32 7 33 6 35
REMARK H PARENT 16 10 23 14 7 34
REMARK Flexibility Score:  122.900
ROOT
ATOM      1  C   UNL     1      32.014  11.107  -3.469  1.00  0.00     0.067 A
ATOM      2  C   UNL     1      33.406  10.948  -3.329  1.00  0.00     0.138 A
ATOM      3  N   UNL     1      34.329  11.936  -3.124  1.00  0.00    -0.235 NA
ATOM      4  C   UNL     1      33.725  13.138  -3.102  1.00  0.00     0.156 A
ATOM      5  N   UNL     1      34.331  14.358  -2.984  1.00  0.00    -0.344 N
ATOM      6  C   UNL     1      33.384  15.354  -3.076  1.00  0.00     0.100 A
ATOM      7  C   UNL     1      32.137  14.763  -3.224  1.00  0.00     0.085 A
ATOM      8  C   UNL     1      32.364  13.361  -3.222  1.00  0.00     0.120 A
ATOM      9  N   UNL     1      31.478  12.344  -3.360  1.00  0.00    -0.246 NA
ATOM     10  H   UNL     1      35.327  14.487  -2.888  1.00  0.00     0.168 HD
ENDROOT
BRANCH   7  11
ATOM     11  C   UNL     1      30.862  15.442  -3.415  1.00  0.00     0.255 C
ATOM     12  N   UNL     1      30.286  15.175  -4.626  1.00  0.00    -0.340 N
ATOM     13  O   UNL     1      30.386  16.205  -2.580  1.00  0.00    -0.269 OA
ATOM     14  H   UNL     1      30.777  14.532  -5.247  1.00  0.00     0.164 HD
BRANCH  12  15
ATOM     15  C   UNL     1      29.157  15.881  -5.197  1.00  0.00     0.175 C
BRANCH  15  16
ATOM     16  C   UNL     1      29.763  16.589  -6.438  1.00  0.00     0.245 C
ATOM     17  O   UNL     1      29.405  16.273  -7.578  1.00  0.00    -0.272 OA
BRANCH  16  18
ATOM     18  N   UNL     1      30.786  17.493  -6.236  1.00  0.00    -0.335 N
ATOM     19  N   UNL     1      34.330  20.059  -6.832  1.00  0.00    -0.198 NA
ATOM     20  C   UNL     1      33.735  19.215  -6.305  1.00  0.00     0.067 C
ATOM     21  C   UNL     1      32.985  18.154  -5.619  1.00  0.00     0.114 C
ATOM     22  C   UNL     1      31.942  18.718  -4.636  1.00  0.00     0.047 C
ATOM     23  C   UNL     1      32.178  17.302  -6.606  1.00  0.00     0.138 C
ATOM     24  C   UNL     1      30.612  18.675  -5.398  1.00  0.00     0.100 C
ATOM     25  G   UNL     1      30.377  19.996  -6.196  1.00  0.00     0.000 C
ENDBRANCH  16  18
ENDBRANCH  15  16
BRANCH  15  26
ATOM     26  C   UNL     1      28.084  14.903  -5.593  1.00  0.00     0.021 C
ATOM     27  C   UNL     1      27.845  13.643  -4.796  1.00  0.00     0.006 C
ATOM     28  C   UNL     1      26.836  14.756  -4.757  1.00  0.00     0.006 C
ENDBRANCH  15  26
ENDBRANCH  12  15
ENDBRANCH   7  11
BRANCH   1  29
ATOM     29  C   UNL     1      31.046   9.932  -3.762  1.00  0.00     0.027 C
ATOM     30  C   UNL     1      31.583   8.552  -4.125  1.00  0.00     0.016 C
ATOM     31  C   UNL     1      31.018   8.787  -2.755  1.00  0.00     0.016 C
BRANCH  29  32
ATOM     32  C   UNL     1      29.699  10.312  -4.404  1.00  0.00     0.094 C
BRANCH  32  33
ATOM     33  N   UNL     1      29.580   9.718  -5.735  1.00  0.00    -0.314 NA
ATOM     34  H   UNL     1      30.079   8.831  -5.747  1.00  0.00     0.122 HD
BRANCH  33  35
ATOM     35  C   UNL     1      28.198   9.483  -6.169  1.00  0.00     0.106 C
ATOM     36  G   UNL     1      27.633   8.029  -6.155  1.00  0.00     0.000 C
ENDBRANCH  33  35
ENDBRANCH  32  33
ENDBRANCH  29  32
ENDBRANCH   1  29
TORSDOF 1
ENDMDL
MODEL 3
REMARK VINA RESULT:      -8.3      1.592      3.916
REMARK SMILES N#C[C@H]1C[C@H]2CNCC3(CC3)c3cnc4[nH]cc(c4n3)C(=O)N[C@H](C3CC3)C(=O)N2C1
REMARK SMILES IDX 12 1 13 2 14 3 15 4 16 5 17 6 18 7 19 8 20 9 21 11 23 12
REMARK SMILES IDX 22 13 24 15 28 16 29 17 30 18 1 19 2 20 3 21 4 22 31 23 5 24
REMARK SMILES IDX 25 26 26 27 27 28 9 29 10 30 11 31 8 32 7 33 6 35
REMARK H PARENT 16 10 23 14 7 34
REMARK Flexibility Score:  122.900
ROOT
ATOM      1  C   UNL     1      32.158   9.860  -3.480  1.00  0.00     0.067 A
ATOM      2  C   UNL     1      31.616   8.701  -4.069  1.00  0.00     0.138 A
ATOM      3  N   UNL     1      30.439   8.604  -4.760  1.00  0.00    -0.235 NA
ATOM      4  C   UNL     1      29.817   9.797  -4.786  1.00  0.00     0.156 A
ATOM      5  N   UNL     1      28.592  10.070  -5.329  1.00  0.00    -0.344 N
ATOM      6  C   UNL     1      28.267  11.388  -5.092  1.00  0.00     0.100 A
ATOM      7  C   UNL     1      29.319  11.985  -4.411  1.00  0.00     0.085 A
ATOM      8  C   UNL     1      30.300  10.973  -4.239  1.00  0.00     0.120 A
ATOM      9  N   UNL     1      31.503  11.036  -3.617  1.00  0.00    -0.246 NA
ATOM     10  H   UNL     1      28.013   9.384  -5.790  1.00  0.00     0.168 HD
ENDROOT
BRANCH   7  11
ATOM     11  C   UNL     1      29.376  13.353  -3.912  1.00  0.00     0.255 C
ATOM     12  N   UNL     1      29.522  14.282  -4.905  1.00  0.00    -0.340 N
ATOM     13  O   UNL     1      29.336  13.624  -2.716  1.00  0.00    -0.269 OA
ATOM     14  H   UNL     1      29.553  13.940  -5.866  1.00  0.00     0.164 HD
BRANCH  12  15
ATOM     15  C   UNL     1      29.850  15.679  -4.711  1.00  0.00     0.175 C
BRANCH  15  16
ATOM     16  C   UNL     1      31.257  15.813  -5.352  1.00  0.00     0.245 C
ATOM     17  O   UNL     1      31.929  14.808  -5.608  1.00  0.00    -0.272 OA
BRANCH  16  18
ATOM     18  N   UNL     1      31.778  17.081  -5.518  1.00  0.00    -0.335 N
ATOM     19  N   UNL     1      34.083  20.805  -4.956  1.00  0.00    -0.198 NA
ATOM     20  C   UNL     1      33.102  20.195  -5.059  1.00  0.00     0.067 C
ATOM     21  C   UNL     1      31.853  19.436  -5.205  1.00  0.00     0.114 C
ATOM     22  C   UNL     1      31.551  19.084  -6.673  1.00  0.00     0.047 C
ATOM     23  C   UNL     1      31.922  18.087  -4.480  1.00  0.00     0.138 C
ATOM     24  C   UNL     1      32.032  17.638  -6.843  1.00  0.00     0.100 C
ATOM     25  G   UNL     1      33.530  17.591  -7.279  1.00  0.00     0.000 C
ENDBRANCH  16  18
ENDBRANCH  15  16
BRANCH  15  26
ATOM     26  C   UNL     1      28.842  16.547  -5.414  1.00  0.00     0.021 C
ATOM     27  C   UNL     1      27.381  16.507  -5.038  1.00  0.00     0.006 C
ATOM     28  C   UNL     1      28.208  17.716  -4.700  1.00  0.00     0.006 C
ENDBRANCH  15  26
ENDBRANCH  12  15
ENDBRANCH   7  11
BRANCH   1  29
ATOM     29  C   UNL     1      33.472   9.865  -2.659  1.00  0.00     0.027 C
ATOM     30  C   UNL     1      33.494   9.354  -1.222  1.00  0.00     0.016 C
ATOM     31  C   UNL     1      34.082   8.510  -2.315  1.00  0.00     0.016 C
BRANCH  29  32
ATOM     32  C   UNL     1      34.462  10.999  -2.977  1.00  0.00     0.094 C
BRANCH  32  33
ATOM     33  N   UNL     1      34.205  12.159  -2.123  1.00  0.00    -0.314 NA
ATOM     34  H   UNL     1      35.012  12.312  -1.522  1.00  0.00     0.122 HD
BRANCH  33  35
ATOM     35  C   UNL     1      33.927  13.398  -2.857  1.00  0.00     0.106 C
ATOM     36  G   UNL     1      32.748  14.310  -2.393  1.00  0.00     0.000 C
ENDBRANCH  33  35
ENDBRANCH  32  33
ENDBRANCH  29  32
ENDBRANCH   1  29
TORSDOF 1
ENDMDL
MODEL 4
REMARK VINA RESULT:      -8.3      1.960      4.574
REMARK SMILES N#C[C@H]1C[C@H]2CNCC3(CC3)c3cnc4[nH]cc(c4n3)C(=O)N[C@H](C3CC3)C(=O)N2C1
REMARK SMILES IDX 12 1 13 2 14 3 15 4 16 5 17 6 18 7 19 8 20 9 21 11 23 12
REMARK SMILES IDX 22 13 24 15 28 16 29 17 30 18 1 19 2 20 3 21 4 22 31 23 5 24
REMARK SMILES IDX 25 26 26 27 27 28 9 29 10 30 11 31 8 32 7 33 6 35
REMARK H PARENT 16 10 23 14 7 34
REMARK Flexibility Score:  122.900
ROOT
ATOM      1  C   UNL     1      31.493   9.054  -3.868  1.00  0.00     0.067 A
ATOM      2  C   UNL     1      31.228   7.690  -4.099  1.00  0.00     0.138 A
ATOM      3  N   UNL     1      30.147   7.162  -4.751  1.00  0.00    -0.235 NA
ATOM      4  C   UNL     1      29.312   8.145  -5.136  1.00  0.00     0.156 A
ATOM      5  N   UNL     1      28.102   7.997  -5.755  1.00  0.00    -0.344 N
ATOM      6  C   UNL     1      27.515   9.231  -5.922  1.00  0.00     0.100 A
ATOM      7  C   UNL     1      28.379  10.200  -5.429  1.00  0.00     0.085 A
ATOM      8  C   UNL     1      29.519   9.501  -4.951  1.00  0.00     0.120 A
ATOM      9  N   UNL     1      30.638   9.982  -4.355  1.00  0.00    -0.246 NA
ATOM     10  H   UNL     1      27.701   7.104  -6.004  1.00  0.00     0.168 HD
ENDROOT
BRANCH   7  11
ATOM     11  C   UNL     1      28.136  11.634  -5.352  1.00  0.00     0.255 C
ATOM     12  N   UNL     1      29.198  12.382  -5.781  1.00  0.00    -0.340 N
ATOM     13  O   UNL     1      27.095  12.107  -4.908  1.00  0.00    -0.269 OA
ATOM     14  H   UNL     1      30.019  11.880  -6.121  1.00  0.00     0.164 HD
BRANCH  12  15
ATOM     15  C   UNL     1      29.350  13.811  -5.599  1.00  0.00     0.175 C
BRANCH  15  16
ATOM     16  C   UNL     1      30.889  14.016  -5.609  1.00  0.00     0.245 C
ATOM     17  O   UNL     1      31.648  13.061  -5.809  1.00  0.00    -0.272 OA
BRANCH  16  18
ATOM     18  N   UNL     1      31.381  15.262  -5.278  1.00  0.00    -0.335 N
ATOM     19  N   UNL     1      32.302  19.581  -5.306  1.00  0.00    -0.198 NA
ATOM     20  C   UNL     1      32.588  18.457  -5.325  1.00  0.00     0.067 C
ATOM     21  C   UNL     1      32.962  17.037  -5.333  1.00  0.00     0.114 C
ATOM     22  C   UNL     1      32.889  16.405  -3.931  1.00  0.00     0.047 C
ATOM     23  C   UNL     1      32.005  16.203  -6.193  1.00  0.00     0.138 C
ATOM     24  C   UNL     1      31.538  15.681  -3.890  1.00  0.00     0.100 C
ATOM     25  G   UNL     1      30.409  16.627  -3.376  1.00  0.00     0.000 C
ENDBRANCH  16  18
ENDBRANCH  15  16
BRANCH  15  26
ATOM     26  C   UNL     1      28.691  14.548  -6.734  1.00  0.00     0.021 C
ATOM     27  C   UNL     1      27.223  14.894  -6.691  1.00  0.00     0.006 C
ATOM     28  C   UNL     1      28.252  15.982  -6.563  1.00  0.00     0.006 C
ENDBRANCH  15  26
ENDBRANCH  12  15
ENDBRANCH   7  11
BRANCH   1  29
ATOM     29  C   UNL     1      32.716   9.560  -3.062  1.00  0.00     0.027 C
ATOM     30  C   UNL     1      32.785   9.372  -1.551  1.00  0.00     0.016 C
ATOM     31  C   UNL     1      33.625   8.505  -2.442  1.00  0.00     0.016 C
BRANCH  29  32
ATOM     32  C   UNL     1      33.406  10.823  -3.608  1.00  0.00     0.094 C
BRANCH  32  33
ATOM     33  N   UNL     1      32.735  12.027  -3.118  1.00  0.00    -0.314 NA
ATOM     34  H   UNL     1      32.038  11.758  -2.427  1.00  0.00     0.122 HD
BRANCH  33  35
ATOM     35  C   UNL     1      33.635  13.015  -2.514  1.00  0.00     0.106 C
ATOM     36  G   UNL     1      35.119  12.622  -2.230  1.00  0.00     0.000 C
ENDBRANCH  33  35
ENDBRANCH  32  33
ENDBRANCH  29  32
ENDBRANCH   1  29
TORSDOF 1
ENDMDL
MODEL 5
REMARK VINA RESULT:      -8.3      3.246      5.799
REMARK SMILES N#C[C@H]1C[C@H]2CNCC3(CC3)c3cnc4[nH]cc(c4n3)C(=O)N[C@H](C3CC3)C(=O)N2C1
REMARK SMILES IDX 12 1 13 2 14 3 15 4 16 5 17 6 18 7 19 8 20 9 21 11 23 12
REMARK SMILES IDX 22 13 24 15 28 16 29 17 30 18 1 19 2 20 3 21 4 22 31 23 5 24
REMARK SMILES IDX 25 26 26 27 27 28 9 29 10 30 11 31 8 32 7 33 6 35
REMARK H PARENT 16 10 23 14 7 34
REMARK Flexibility Score:  122.900
ROOT
ATOM      1  C   UNL     1      29.435   7.988  -5.846  1.00  0.00     0.067 A
ATOM      2  C   UNL     1      29.840   6.799  -5.210  1.00  0.00     0.138 A
ATOM      3  N   UNL     1      30.732   6.682  -4.179  1.00  0.00    -0.235 NA
ATOM      4  C   UNL     1      31.223   7.891  -3.851  1.00  0.00     0.156 A
ATOM      5  N   UNL     1      32.182   8.159  -2.914  1.00  0.00    -0.344 N
ATOM      6  C   UNL     1      32.469   9.506  -2.920  1.00  0.00     0.100 A
ATOM      7  C   UNL     1      31.654  10.125  -3.858  1.00  0.00     0.085 A
ATOM      8  C   UNL     1      30.859   9.095  -4.427  1.00  0.00     0.120 A
ATOM      9  N   UNL     1      29.922   9.171  -5.405  1.00  0.00    -0.246 NA
ATOM     10  H   UNL     1      32.629   7.454  -2.345  1.00  0.00     0.168 HD
ENDROOT
BRANCH   7  11
ATOM     11  C   UNL     1      31.662  11.533  -4.233  1.00  0.00     0.255 C
ATOM     12  N   UNL     1      30.440  12.131  -4.102  1.00  0.00    -0.340 N
ATOM     13  O   UNL     1      32.663  12.099  -4.660  1.00  0.00    -0.269 OA
ATOM     14  H   UNL     1      29.673  11.559  -3.747  1.00  0.00     0.164 HD
BRANCH  12  15
ATOM     15  C   UNL     1      30.079  13.435  -4.620  1.00  0.00     0.175 C
BRANCH  15  16
ATOM     16  C   UNL     1      28.707  13.187  -5.302  1.00  0.00     0.245 C
ATOM     17  O   UNL     1      28.353  12.042  -5.604  1.00  0.00    -0.272 OA
BRANCH  16  18
ATOM     18  N   UNL     1      27.951  14.285  -5.662  1.00  0.00    -0.335 N
ATOM     19  N   UNL     1      25.756  17.313  -8.009  1.00  0.00    -0.198 NA
ATOM     20  C   UNL     1      26.579  16.968  -7.268  1.00  0.00     0.067 C
ATOM     21  C   UNL     1      27.613  16.546  -6.314  1.00  0.00     0.114 C
ATOM     22  C   UNL     1      27.041  16.285  -4.909  1.00  0.00     0.047 C
ATOM     23  C   UNL     1      28.259  15.220  -6.731  1.00  0.00     0.138 C
ATOM     24  C   UNL     1      26.853  14.766  -4.830  1.00  0.00     0.100 C
ATOM     25  G   UNL     1      25.437  14.348  -5.338  1.00  0.00     0.000 C
ENDBRANCH  16  18
ENDBRANCH  15  16
BRANCH  15  26
ATOM     26  C   UNL     1      29.960  14.423  -3.491  1.00  0.00     0.021 C
ATOM     27  C   UNL     1      31.137  14.730  -2.597  1.00  0.00     0.006 C
ATOM     28  C   UNL     1      30.648  15.764  -3.573  1.00  0.00     0.006 C
ENDBRANCH  15  26
ENDBRANCH  12  15
ENDBRANCH   7  11
BRANCH   1  29
ATOM     29  C   UNL     1      28.462   8.022  -7.052  1.00  0.00     0.027 C
ATOM     30  C   UNL     1      28.993   8.026  -8.481  1.00  0.00     0.016 C
ATOM     31  C   UNL     1      28.390   6.771  -7.922  1.00  0.00     0.016 C
BRANCH  29  32
ATOM     32  C   UNL     1      27.140   8.779  -6.832  1.00  0.00     0.094 C
BRANCH  32  33
ATOM     33  N   UNL     1      26.764   8.755  -5.418  1.00  0.00    -0.314 NA
ATOM     34  H   UNL     1      26.422   9.676  -5.151  1.00  0.00     0.122 HD
BRANCH  33  35
ATOM     35  C   UNL     1      25.739   7.760  -5.084  1.00  0.00     0.106 C
ATOM     36  G   UNL     1      24.989   7.023  -6.237  1.00  0.00     0.000 C
ENDBRANCH  33  35
ENDBRANCH  32  33
ENDBRANCH  29  32
ENDBRANCH   1  29
TORSDOF 1
ENDMDL
MODEL 6
REMARK VINA RESULT:      -8.0      2.564      4.567
REMARK SMILES N#C[C@H]1C[C@H]2CNCC3(CC3)c3cnc4[nH]cc(c4n3)C(=O)N[C@H](C3CC3)C(=O)N2C1
REMARK SMILES IDX 12 1 13 2 14 3 15 4 16 5 17 6 18 7 19 8 20 9 21 11 23 12
REMARK SMILES IDX 22 13 24 15 28 16 29 17 30 18 1 19 2 20 3 21 4 22 31 23 5 24
REMARK SMILES IDX 25 26 26 27 27 28 9 29 10 30 11 31 8 32 7 33 6 35
REMARK H PARENT 16 10 23 14 7 34
REMARK Flexibility Score:  122.900
ROOT
ATOM      1  C   UNL     1      32.310   9.427  -3.154  1.00  0.00     0.067 A
ATOM      2  C   UNL     1      33.269   8.582  -2.561  1.00  0.00     0.138 A
ATOM      3  N   UNL     1      34.431   8.962  -1.948  1.00  0.00    -0.235 NA
ATOM      4  C   UNL     1      34.571  10.300  -2.007  1.00  0.00     0.156 A
ATOM      5  N   UNL     1      35.634  11.033  -1.558  1.00  0.00    -0.344 N
ATOM      6  C   UNL     1      35.440  12.362  -1.863  1.00  0.00     0.100 A
ATOM      7  C   UNL     1      34.209  12.493  -2.493  1.00  0.00     0.085 A
ATOM      8  C   UNL     1      33.662  11.184  -2.562  1.00  0.00     0.120 A
ATOM      9  N   UNL     1      32.491  10.766  -3.104  1.00  0.00    -0.246 NA
ATOM     10  H   UNL     1      36.447  10.634  -1.112  1.00  0.00     0.168 HD
ENDROOT
BRANCH   7  11
ATOM     11  C   UNL     1      33.628  13.713  -3.036  1.00  0.00     0.255 C
ATOM     12  N   UNL     1      32.306  13.581  -3.361  1.00  0.00    -0.340 N
ATOM     13  O   UNL     1      34.282  14.736  -3.216  1.00  0.00    -0.269 OA
ATOM     14  H   UNL     1      31.866  12.679  -3.177  1.00  0.00     0.164 HD
BRANCH  12  15
ATOM     15  C   UNL     1      31.529  14.527  -4.135  1.00  0.00     0.175 C
BRANCH  15  16
ATOM     16  C   UNL     1      30.760  13.629  -5.140  1.00  0.00     0.245 C
ATOM     17  O   UNL     1      31.358  12.773  -5.802  1.00  0.00    -0.272 OA
BRANCH  16  18
ATOM     18  N   UNL     1      29.422  13.889  -5.353  1.00  0.00    -0.335 N
ATOM     19  N   UNL     1      25.119  14.657  -4.726  1.00  0.00    -0.198 NA
ATOM     20  C   UNL     1      26.017  14.060  -5.153  1.00  0.00     0.067 C
ATOM     21  C   UNL     1      27.146  13.306  -5.714  1.00  0.00     0.114 C
ATOM     22  C   UNL     1      27.745  13.988  -6.957  1.00  0.00     0.047 C
ATOM     23  C   UNL     1      28.308  13.204  -4.720  1.00  0.00     0.138 C
ATOM     24  C   UNL     1      28.972  14.750  -6.442  1.00  0.00     0.100 C
ATOM     25  G   UNL     1      28.590  16.196  -5.996  1.00  0.00     0.000 C
ENDBRANCH  16  18
ENDBRANCH  15  16
BRANCH  15  26
ATOM     26  C   UNL     1      30.585  15.277  -3.235  1.00  0.00     0.021 C
ATOM     27  C   UNL     1      30.975  15.637  -1.822  1.00  0.00     0.006 C
ATOM     28  C   UNL     1      30.860  16.714  -2.864  1.00  0.00     0.006 C
ENDBRANCH  15  26
ENDBRANCH  12  15
ENDBRANCH   7  11
BRANCH   1  29
ATOM     29  C   UNL     1      31.048   8.903  -3.885  1.00  0.00     0.027 C
ATOM     30  C   UNL     1      31.144   7.747  -4.873  1.00  0.00     0.016 C
ATOM     31  C   UNL     1      30.558   7.508  -3.513  1.00  0.00     0.016 C
BRANCH  29  32
ATOM     32  C   UNL     1      29.962   9.951  -4.190  1.00  0.00     0.094 C
BRANCH  32  33
ATOM     33  N   UNL     1      29.785  10.100  -5.634  1.00  0.00    -0.314 NA
ATOM     34  H   UNL     1      30.410   9.455  -6.112  1.00  0.00     0.122 HD
BRANCH  33  35
ATOM     35  C   UNL     1      28.416   9.857  -6.102  1.00  0.00     0.106 C
ATOM     36  G   UNL     1      27.501   8.876  -5.304  1.00  0.00     0.000 C
ENDBRANCH  33  35
ENDBRANCH  32  33
ENDBRANCH  29  32
ENDBRANCH   1  29
TORSDOF 1
ENDMDL
MODEL 7
REMARK VINA RESULT:      -8.0      2.163      4.457
REMARK SMILES N#C[C@H]1C[C@H]2CNCC3(CC3)c3cnc4[nH]cc(c4n3)C(=O)N[C@H](C3CC3)C(=O)N2C1
REMARK SMILES IDX 12 1 13 2 14 3 15 4 16 5 17 6 18 7 19 8 20 9 21 11 23 12
REMARK SMILES IDX 22 13 24 15 28 16 29 17 30 18 1 19 2 20 3 21 4 22 31 23 5 24
REMARK SMILES IDX 25 26 26 27 27 28 9 29 10 30 11 31 8 32 7 33 6 35
REMARK H PARENT 16 10 23 14 7 34
REMARK Flexibility Score:  122.900
ROOT
ATOM      1  C   UNL     1      32.466  11.102  -3.382  1.00  0.00     0.067 A
ATOM      2  C   UNL     1      33.646  10.783  -2.683  1.00  0.00     0.138 A
ATOM      3  N   UNL     1      34.617  11.653  -2.271  1.00  0.00    -0.235 NA
ATOM      4  C   UNL     1      34.313  12.906  -2.657  1.00  0.00     0.156 A
ATOM      5  N   UNL     1      35.076  14.027  -2.480  1.00  0.00    -0.344 N
ATOM      6  C   UNL     1      34.459  15.104  -3.076  1.00  0.00     0.100 A
ATOM      7  C   UNL     1      33.255  14.675  -3.621  1.00  0.00     0.085 A
ATOM      8  C   UNL     1      33.167  13.287  -3.333  1.00  0.00     0.120 A
ATOM      9  N   UNL     1      32.199  12.398  -3.667  1.00  0.00    -0.246 NA
ATOM     10  H   UNL     1      35.973  14.032  -2.017  1.00  0.00     0.168 HD
ENDROOT
BRANCH   7  11
ATOM     11  C   UNL     1      32.309  15.471  -4.392  1.00  0.00     0.255 C
ATOM     12  N   UNL     1      31.004  15.203  -4.082  1.00  0.00    -0.340 N
ATOM     13  O   UNL     1      32.662  16.268  -5.255  1.00  0.00    -0.269 OA
ATOM     14  H   UNL     1      30.828  14.511  -3.353  1.00  0.00     0.164 HD
BRANCH  12  15
ATOM     15  C   UNL     1      29.851  15.646  -4.838  1.00  0.00     0.175 C
BRANCH  15  16
ATOM     16  C   UNL     1      28.823  14.501  -4.637  1.00  0.00     0.245 C
ATOM     17  O   UNL     1      28.936  13.715  -3.689  1.00  0.00    -0.272 OA
BRANCH  16  18
ATOM     18  N   UNL     1      27.855  14.318  -5.603  1.00  0.00    -0.335 N
ATOM     19  N   UNL     1      24.071  14.493  -7.873  1.00  0.00    -0.198 NA
ATOM     20  C   UNL     1      24.921  13.940  -7.310  1.00  0.00     0.067 C
ATOM     21  C   UNL     1      26.001  13.227  -6.615  1.00  0.00     0.114 C
ATOM     22  C   UNL     1      27.264  13.089  -7.483  1.00  0.00     0.047 C
ATOM     23  C   UNL     1      26.462  13.981  -5.362  1.00  0.00     0.138 C
ATOM     24  C   UNL     1      28.193  14.217  -7.019  1.00  0.00     0.100 C
ATOM     25  G   UNL     1      27.939  15.525  -7.832  1.00  0.00     0.000 C
ENDBRANCH  16  18
ENDBRANCH  15  16
BRANCH  15  26
ATOM     26  C   UNL     1      29.339  16.947  -4.279  1.00  0.00     0.021 C
ATOM     27  C   UNL     1      29.737  18.268  -4.890  1.00  0.00     0.006 C
ATOM     28  C   UNL     1      28.330  17.766  -5.048  1.00  0.00     0.006 C
ENDBRANCH  15  26
ENDBRANCH  12  15
ENDBRANCH   7  11
BRANCH   1  29
ATOM     29  C   UNL     1      31.447  10.040  -3.866  1.00  0.00     0.027 C
ATOM     30  C   UNL     1      31.838   8.569  -3.953  1.00  0.00     0.016 C
ATOM     31  C   UNL     1      30.951   9.032  -2.835  1.00  0.00     0.016 C
BRANCH  29  32
ATOM     32  C   UNL     1      30.418  10.517  -4.906  1.00  0.00     0.094 C
BRANCH  32  33
ATOM     33  N   UNL     1      29.169  10.906  -4.251  1.00  0.00    -0.314 NA
ATOM     34  H   UNL     1      29.158  11.918  -4.135  1.00  0.00     0.122 HD
BRANCH  33  35
ATOM     35  C   UNL     1      27.958  10.505  -4.975  1.00  0.00     0.106 C
ATOM     36  G   UNL     1      28.063   9.419  -6.091  1.00  0.00     0.000 C
ENDBRANCH  33  35
ENDBRANCH  32  33
ENDBRANCH  29  32
ENDBRANCH   1  29
TORSDOF 1
ENDMDL
MODEL 8
REMARK VINA RESULT:      -8.0      2.203      5.239
REMARK SMILES N#C[C@H]1C[C@H]2CNCC3(CC3)c3cnc4[nH]cc(c4n3)C(=O)N[C@H](C3CC3)C(=O)N2C1
REMARK SMILES IDX 12 1 13 2 14 3 15 4 16 5 17 6 18 7 19 8 20 9 21 11 23 12
REMARK SMILES IDX 22 13 24 15 28 16 29 17 30 18 1 19 2 20 3 21 4 22 31 23 5 24
REMARK SMILES IDX 25 26 26 27 27 28 9 29 10 30 11 31 8 32 7 33 6 35
REMARK H PARENT 16 10 23 14 7 34
REMARK Flexibility Score:  122.900
ROOT
ATOM      1  C   UNL     1      33.009  10.209  -2.859  1.00  0.00     0.067 A
ATOM      2  C   UNL     1      32.118   9.143  -2.630  1.00  0.00     0.138 A
ATOM      3  N   UNL     1      30.844   9.019  -3.112  1.00  0.00    -0.235 NA
ATOM      4  C   UNL     1      30.516  10.102  -3.841  1.00  0.00     0.156 A
ATOM      5  N   UNL     1      29.308  10.362  -4.426  1.00  0.00    -0.344 N
ATOM      6  C   UNL     1      29.342  11.603  -5.022  1.00  0.00     0.100 A
ATOM      7  C   UNL     1      30.609  12.141  -4.847  1.00  0.00     0.085 A
ATOM      8  C   UNL     1      31.348  11.175  -4.113  1.00  0.00     0.120 A
ATOM      9  N   UNL     1      32.627  11.225  -3.666  1.00  0.00    -0.246 NA
ATOM     10  H   UNL     1      28.513   9.742  -4.378  1.00  0.00     0.168 HD
ENDROOT
BRANCH   7  11
ATOM     11  C   UNL     1      31.069  13.459  -5.267  1.00  0.00     0.255 C
ATOM     12  N   UNL     1      30.304  14.478  -4.770  1.00  0.00    -0.340 N
ATOM     13  O   UNL     1      32.021  13.618  -6.023  1.00  0.00    -0.269 OA
ATOM     14  H   UNL     1      29.528  14.227  -4.158  1.00  0.00     0.164 HD
BRANCH  12  15
ATOM     15  C   UNL     1      30.360  15.860  -5.201  1.00  0.00     0.175 C
BRANCH  15  16
ATOM     16  C   UNL     1      28.883  16.328  -5.110  1.00  0.00     0.245 C
ATOM     17  O   UNL     1      28.558  17.238  -4.338  1.00  0.00    -0.272 OA
BRANCH  16  18
ATOM     18  N   UNL     1      27.933  15.627  -5.825  1.00  0.00    -0.335 N
ATOM     19  N   UNL     1      24.097  13.966  -7.250  1.00  0.00    -0.198 NA
ATOM     20  C   UNL     1      25.173  13.881  -6.824  1.00  0.00     0.067 C
ATOM     21  C   UNL     1      26.540  13.760  -6.300  1.00  0.00     0.114 C
ATOM     22  C   UNL     1      27.605  13.947  -7.396  1.00  0.00     0.047 C
ATOM     23  C   UNL     1      26.846  14.845  -5.261  1.00  0.00     0.138 C
ATOM     24  C   UNL     1      28.064  15.404  -7.261  1.00  0.00     0.100 C
ATOM     25  G   UNL     1      27.187  16.353  -8.137  1.00  0.00     0.000 C
ENDBRANCH  16  18
ENDBRANCH  15  16
BRANCH  15  26
ATOM     26  C   UNL     1      31.244  16.652  -4.276  1.00  0.00     0.021 C
ATOM     27  C   UNL     1      32.745  16.646  -4.437  1.00  0.00     0.006 C
ATOM     28  C   UNL     1      31.961  17.885  -4.771  1.00  0.00     0.006 C
ENDBRANCH  15  26
ENDBRANCH  12  15
ENDBRANCH   7  11
BRANCH   1  29
ATOM     29  C   UNL     1      34.417  10.296  -2.218  1.00  0.00     0.027 C
ATOM     30  C   UNL     1      34.712   9.610  -0.889  1.00  0.00     0.016 C
ATOM     31  C   UNL     1      35.235   9.010  -2.161  1.00  0.00     0.016 C
BRANCH  29  32
ATOM     32  C   UNL     1      35.201  11.593  -2.485  1.00  0.00     0.094 C
BRANCH  32  33
ATOM     33  N   UNL     1      34.500  12.743  -1.913  1.00  0.00    -0.314 NA
ATOM     34  H   UNL     1      34.936  12.988  -1.026  1.00  0.00     0.122 HD
BRANCH  33  35
ATOM     35  C   UNL     1      34.489  13.932  -2.772  1.00  0.00     0.106 C
ATOM     36  G   UNL     1      35.627  14.989  -2.623  1.00  0.00     0.000 C
ENDBRANCH  33  35
ENDBRANCH  32  33
ENDBRANCH  29  32
ENDBRANCH   1  29
TORSDOF 1
ENDMDL
MODEL 9
REMARK VINA RESULT:      -8.0      1.176      2.055
REMARK SMILES N#C[C@H]1C[C@H]2CNCC3(CC3)c3cnc4[nH]cc(c4n3)C(=O)N[C@H](C3CC3)C(=O)N2C1
REMARK SMILES IDX 12 1 13 2 14 3 15 4 16 5 17 6 18 7 19 8 20 9 21 11 23 12
REMARK SMILES IDX 22 13 24 15 28 16 29 17 30 18 1 19 2 20 3 21 4 22 31 23 5 24
REMARK SMILES IDX 25 26 26 27 27 28 9 29 10 30 11 31 8 32 7 33 6 35
REMARK H PARENT 16 10 23 14 7 34
REMARK Flexibility Score:  122.900
ROOT
ATOM      1  C   UNL     1      32.043  11.367  -3.635  1.00  0.00     0.067 A
ATOM      2  C   UNL     1      33.435  11.245  -3.461  1.00  0.00     0.138 A
ATOM      3  N   UNL     1      34.321  12.252  -3.196  1.00  0.00    -0.235 NA
ATOM      4  C   UNL     1      33.680  13.435  -3.150  1.00  0.00     0.156 A
ATOM      5  N   UNL     1      34.245  14.667  -2.972  1.00  0.00    -0.344 N
ATOM      6  C   UNL     1      33.271  15.637  -3.057  1.00  0.00     0.100 A
ATOM      7  C   UNL     1      32.047  15.014  -3.261  1.00  0.00     0.085 A
ATOM      8  C   UNL     1      32.317  13.621  -3.300  1.00  0.00     0.120 A
ATOM      9  N   UNL     1      31.467  12.583  -3.498  1.00  0.00    -0.246 NA
ATOM     10  H   UNL     1      35.234  14.822  -2.843  1.00  0.00     0.168 HD
ENDROOT
BRANCH   7  11
ATOM     11  C   UNL     1      30.757  15.662  -3.463  1.00  0.00     0.255 C
ATOM     12  N   UNL     1      30.184  15.353  -4.666  1.00  0.00    -0.340 N
ATOM     13  O   UNL     1      30.268  16.434  -2.646  1.00  0.00    -0.269 OA
ATOM     14  H   UNL     1      30.687  14.705  -5.273  1.00  0.00     0.164 HD
BRANCH  12  15
ATOM     15  C   UNL     1      29.039  16.021  -5.251  1.00  0.00     0.175 C
BRANCH  15  16
ATOM     16  C   UNL     1      29.635  16.750  -6.484  1.00  0.00     0.245 C
ATOM     17  O   UNL     1      29.276  16.446  -7.627  1.00  0.00    -0.272 OA
BRANCH  16  18
ATOM     18  N   UNL     1      30.652  17.659  -6.273  1.00  0.00    -0.335 N
ATOM     19  N   UNL     1      34.208  20.218  -6.827  1.00  0.00    -0.198 NA
ATOM     20  C   UNL     1      33.600  19.383  -6.300  1.00  0.00     0.067 C
ATOM     21  C   UNL     1      32.834  18.335  -5.613  1.00  0.00     0.114 C
ATOM     22  C   UNL     1      31.766  18.916  -4.668  1.00  0.00     0.047 C
ATOM     23  C   UNL     1      32.054  17.463  -6.603  1.00  0.00     0.138 C
ATOM     24  C   UNL     1      30.456  18.856  -5.463  1.00  0.00     0.100 C
ATOM     25  G   UNL     1      30.241  20.161  -6.292  1.00  0.00     0.000 C
ENDBRANCH  16  18
ENDBRANCH  15  16
BRANCH  15  26
ATOM     26  C   UNL     1      28.005  15.007  -5.660  1.00  0.00     0.021 C
ATOM     27  C   UNL     1      27.808  13.733  -4.874  1.00  0.00     0.006 C
ATOM     28  C   UNL     1      26.758  14.807  -4.831  1.00  0.00     0.006 C
ENDBRANCH  15  26
ENDBRANCH  12  15
ENDBRANCH   7  11
BRANCH   1  29
ATOM     29  C   UNL     1      31.120  10.175  -3.996  1.00  0.00     0.027 C
ATOM     30  C   UNL     1      29.608  10.353  -4.061  1.00  0.00     0.016 C
ATOM     31  C   UNL     1      30.393  10.240  -5.335  1.00  0.00     0.016 C
BRANCH  29  32
ATOM     32  C   UNL     1      31.608   8.786  -3.549  1.00  0.00     0.094 C
BRANCH  32  33
ATOM     33  N   UNL     1      31.407   8.609  -2.111  1.00  0.00    -0.314 NA
ATOM     34  H   UNL     1      31.078   7.662  -1.937  1.00  0.00     0.122 HD
BRANCH  33  35
ATOM     35  C   UNL     1      32.608   8.843  -1.301  1.00  0.00     0.106 C
ATOM     36  G   UNL     1      34.014   8.632  -1.945  1.00  0.00     0.000 C
ENDBRANCH  33  35
ENDBRANCH  32  33
ENDBRANCH  29  32
ENDBRANCH   1  29
TORSDOF 1
ENDMDL
