MODEL 1
REMARK VINA RESULT:     -11.2      0.000      0.000
REMARK SMILES CN1CCN2c3ccc(cc3)-c3cnc4cccc(c4n3)-c3cc(F)c(c(F)c3)CN3CCOC[C@H]3CSC[C@@H]2C1
REMARK SMILES IDX 22 1 23 2 24 3 25 4 26 5 27 6 28 7 29 8 19 9 12 10 13 11
REMARK SMILES IDX 21 12 14 13 20 14 15 15 16 16 18 17 17 18 9 19 6 20 7 21
REMARK SMILES IDX 11 22 8 23 10 24 5 25 2 26 3 27 41 28 4 29 40 30 1 31 30 33
REMARK SMILES IDX 31 34 32 35 36 36 33 37 35 38 34 39 37 40 38 41 39 42
REMARK H PARENT
REMARK Flexibility Score:   82.900
ROOT
ATOM      1  C   UNL     1      33.104  13.395  -3.113  1.00  0.00    -0.010 A
ATOM      2  C   UNL     1      33.026  13.445  -4.511  1.00  0.00     0.048 A
ATOM      3  C   UNL     1      32.273  14.436  -5.143  1.00  0.00     0.131 A
ATOM      4  F   UNL     1      32.228  14.439  -6.484  1.00  0.00    -0.207 F
ATOM      5  C   UNL     1      31.578  15.408  -4.419  1.00  0.00     0.038 A
ATOM      6  C   UNL     1      31.614  15.316  -3.030  1.00  0.00     0.131 A
ATOM      7  F   UNL     1      30.933  16.200  -2.285  1.00  0.00    -0.207 F
ATOM      8  C   UNL     1      32.361  14.333  -2.380  1.00  0.00     0.048 A
ENDROOT
BRANCH   1   9
ATOM      9  C   UNL     1      34.024  12.453  -2.442  1.00  0.00     0.010 A
ATOM     10  C   UNL     1      32.422   9.286  -3.135  1.00  0.00     0.089 A
ATOM     11  C   UNL     1      33.239   8.420  -2.437  1.00  0.00     0.140 A
ATOM     12  N   UNL     1      32.692  10.611  -3.155  1.00  0.00    -0.244 NA
ATOM     13  N   UNL     1      34.338   8.839  -1.759  1.00  0.00    -0.252 NA
ATOM     14  C   UNL     1      33.758  11.070  -2.474  1.00  0.00     0.097 A
ATOM     15  C   UNL     1      34.593  10.167  -1.776  1.00  0.00     0.089 A
ATOM     16  C   UNL     1      35.691  10.668  -1.090  1.00  0.00     0.030 A
ATOM     17  C   UNL     1      35.138  12.925  -1.734  1.00  0.00     0.011 A
ATOM     18  C   UNL     1      35.972  12.035  -1.065  1.00  0.00     0.003 A
BRANCH  10  19
ATOM     19  C   UNL     1      31.222   8.920  -3.884  1.00  0.00     0.002 A
ATOM     20  C   UNL     1      29.184   8.151  -5.727  1.00  0.00     0.037 A
ATOM     21  C   UNL     1      29.973   7.199  -5.071  1.00  0.00     0.026 A
ATOM     22  C   UNL     1      29.369   9.491  -5.355  1.00  0.00     0.026 A
ATOM     23  C   UNL     1      30.979   7.572  -4.178  1.00  0.00     0.012 A
ATOM     24  C   UNL     1      30.370   9.875  -4.448  1.00  0.00     0.012 A
BRANCH  20  25
ATOM     25  N   UNL     1      28.320   7.796  -6.748  1.00  0.00    -0.365 N
ATOM     26  N   UNL     1      26.683   7.825  -9.255  1.00  0.00    -0.303 NA
ATOM     27  C   UNL     1      28.146   8.031  -9.197  1.00  0.00     0.105 C
ATOM     28  C   UNL     1      26.126   7.491  -7.926  1.00  0.00     0.110 C
ATOM     29  C   UNL     1      28.848   7.301  -8.029  1.00  0.00     0.132 C
ATOM     30  C   UNL     1      26.860   8.108  -6.693  1.00  0.00     0.106 C
ATOM     31  C   UNL     1      26.023   8.993  -9.836  1.00  0.00     0.105 C
ATOM     32  G   UNL     1      26.204   7.562  -5.392  1.00  0.00     0.000 C
ENDBRANCH  20  25
ENDBRANCH  10  19
ENDBRANCH   1   9
BRANCH   5  33
ATOM     33  C   UNL     1      30.808  16.495  -5.121  1.00  0.00     0.126 C
BRANCH  33  34
ATOM     34  N   UNL     1      31.266  17.840  -4.742  1.00  0.00    -0.291 NA
ATOM     35  C   UNL     1      32.609  18.109  -5.304  1.00  0.00     0.113 C
ATOM     36  C   UNL     1      30.342  18.999  -4.951  1.00  0.00     0.092 C
ATOM     37  C   UNL     1      32.943  19.602  -5.332  1.00  0.00     0.175 C
ATOM     38  C   UNL     1      30.729  19.787  -6.232  1.00  0.00     0.180 C
ATOM     39  O   UNL     1      32.062  20.327  -6.196  1.00  0.00    -0.378 OA
BRANCH  36  40
ATOM     40  C   UNL     1      28.826  18.694  -4.900  1.00  0.00     0.091 C
BRANCH  40  41
ATOM     41  S   UNL     1      27.919  18.919  -6.486  1.00  0.00    -0.158 SA
BRANCH  41  42
ATOM     42  C   UNL     1      26.673  17.579  -6.330  1.00  0.00     0.096 C
ATOM     43  G   UNL     1      27.118  16.513  -5.287  1.00  0.00     0.000 C
ENDBRANCH  41  42
ENDBRANCH  40  41
ENDBRANCH  36  40
ENDBRANCH  33  34
ENDBRANCH   5  33
TORSDOF 0
ENDMDL
MODEL 2
REMARK VINA RESULT:     -11.0      0.660      1.440
REMARK SMILES CN1CCN2c3ccc(cc3)-c3cnc4cccc(c4n3)-c3cc(F)c(c(F)c3)CN3CCOC[C@H]3CSC[C@@H]2C1
REMARK SMILES IDX 22 1 23 2 24 3 25 4 26 5 27 6 28 7 29 8 19 9 12 10 13 11
REMARK SMILES IDX 21 12 14 13 20 14 15 15 16 16 18 17 17 18 9 19 6 20 7 21
REMARK SMILES IDX 11 22 8 23 10 24 5 25 2 26 3 27 41 28 4 29 40 30 1 31 30 33
REMARK SMILES IDX 31 34 32 35 36 36 33 37 35 38 34 39 37 40 38 41 39 42
REMARK H PARENT
REMARK Flexibility Score:   82.900
ROOT
ATOM      1  C   UNL     1      33.306  13.425  -2.943  1.00  0.00    -0.010 A
ATOM      2  C   UNL     1      32.569  14.321  -2.157  1.00  0.00     0.048 A
ATOM      3  C   UNL     1      31.642  15.182  -2.746  1.00  0.00     0.131 A
ATOM      4  F   UNL     1      30.963  16.023  -1.949  1.00  0.00    -0.207 F
ATOM      5  C   UNL     1      31.411  15.187  -4.123  1.00  0.00     0.038 A
ATOM      6  C   UNL     1      32.188  14.335  -4.904  1.00  0.00     0.131 A
ATOM      7  F   UNL     1      32.036  14.326  -6.236  1.00  0.00    -0.207 F
ATOM      8  C   UNL     1      33.120  13.466  -4.334  1.00  0.00     0.048 A
ENDROOT
BRANCH   1   9
ATOM      9  C   UNL     1      34.168  12.403  -2.315  1.00  0.00     0.010 A
ATOM     10  C   UNL     1      32.406   9.366  -3.176  1.00  0.00     0.089 A
ATOM     11  C   UNL     1      33.169   8.423  -2.518  1.00  0.00     0.140 A
ATOM     12  N   UNL     1      32.747  10.674  -3.128  1.00  0.00    -0.244 NA
ATOM     13  N   UNL     1      34.282   8.748  -1.812  1.00  0.00    -0.252 NA
ATOM     14  C   UNL     1      33.829  11.040  -2.417  1.00  0.00     0.097 A
ATOM     15  C   UNL     1      34.608  10.060  -1.761  1.00  0.00     0.089 A
ATOM     16  C   UNL     1      35.724  10.466  -1.043  1.00  0.00     0.030 A
ATOM     17  C   UNL     1      35.299  12.778  -1.576  1.00  0.00     0.011 A
ATOM     18  C   UNL     1      36.079  11.813  -0.948  1.00  0.00     0.003 A
BRANCH  10  19
ATOM     19  C   UNL     1      31.194   9.103  -3.950  1.00  0.00     0.002 A
ATOM     20  C   UNL     1      29.134   8.547  -5.844  1.00  0.00     0.037 A
ATOM     21  C   UNL     1      29.879   7.521  -5.252  1.00  0.00     0.026 A
ATOM     22  C   UNL     1      29.375   9.850  -5.384  1.00  0.00     0.026 A
ATOM     23  C   UNL     1      30.895   7.789  -4.334  1.00  0.00     0.012 A
ATOM     24  C   UNL     1      30.387  10.129  -4.451  1.00  0.00     0.012 A
BRANCH  20  25
ATOM     25  N   UNL     1      28.260   8.299  -6.889  1.00  0.00    -0.365 N
ATOM     26  N   UNL     1      26.575   8.597  -9.346  1.00  0.00    -0.303 NA
ATOM     27  C   UNL     1      28.034   8.835  -9.286  1.00  0.00     0.105 C
ATOM     28  C   UNL     1      26.053   8.081  -8.062  1.00  0.00     0.110 C
ATOM     29  C   UNL     1      28.777   7.985  -8.230  1.00  0.00     0.132 C
ATOM     30  C   UNL     1      26.794   8.559  -6.772  1.00  0.00     0.106 C
ATOM     31  C   UNL     1      25.874   9.808  -9.765  1.00  0.00     0.105 C
ATOM     32  G   UNL     1      26.178   7.834  -5.540  1.00  0.00     0.000 C
ENDBRANCH  20  25
ENDBRANCH  10  19
ENDBRANCH   1   9
BRANCH   5  33
ATOM     33  C   UNL     1      30.374  16.093  -4.733  1.00  0.00     0.126 C
BRANCH  33  34
ATOM     34  N   UNL     1      30.720  17.515  -4.594  1.00  0.00    -0.291 NA
ATOM     35  C   UNL     1      32.055  17.784  -5.174  1.00  0.00     0.113 C
ATOM     36  C   UNL     1      29.719  18.543  -5.021  1.00  0.00     0.092 C
ATOM     37  C   UNL     1      32.278  19.270  -5.463  1.00  0.00     0.175 C
ATOM     38  C   UNL     1      30.084  19.119  -6.416  1.00  0.00     0.180 C
ATOM     39  O   UNL     1      31.372  19.759  -6.457  1.00  0.00    -0.378 OA
BRANCH  36  40
ATOM     40  C   UNL     1      28.229  18.134  -4.940  1.00  0.00     0.091 C
BRANCH  40  41
ATOM     41  S   UNL     1      27.294  18.232  -6.523  1.00  0.00    -0.158 SA
BRANCH  41  42
ATOM     42  C   UNL     1      27.559  16.527  -7.151  1.00  0.00     0.096 C
ATOM     43  G   UNL     1      26.327  16.026  -7.961  1.00  0.00     0.000 C
ENDBRANCH  41  42
ENDBRANCH  40  41
ENDBRANCH  36  40
ENDBRANCH  33  34
ENDBRANCH   5  33
TORSDOF 0
ENDMDL
MODEL 3
REMARK VINA RESULT:     -11.0      1.713      2.760
REMARK SMILES CN1CCN2c3ccc(cc3)-c3cnc4cccc(c4n3)-c3cc(F)c(c(F)c3)CN3CCOC[C@H]3CSC[C@@H]2C1
REMARK SMILES IDX 22 1 23 2 24 3 25 4 26 5 27 6 28 7 29 8 19 9 12 10 13 11
REMARK SMILES IDX 21 12 14 13 20 14 15 15 16 16 18 17 17 18 9 19 6 20 7 21
REMARK SMILES IDX 11 22 8 23 10 24 5 25 2 26 3 27 41 28 4 29 40 30 1 31 30 33
REMARK SMILES IDX 31 34 32 35 36 36 33 37 35 38 34 39 37 40 38 41 39 42
REMARK H PARENT
REMARK Flexibility Score:   82.900
ROOT
ATOM      1  C   UNL     1      33.245  13.485  -2.905  1.00  0.00    -0.010 A
ATOM      2  C   UNL     1      32.445  14.307  -2.101  1.00  0.00     0.048 A
ATOM      3  C   UNL     1      31.492  15.150  -2.676  1.00  0.00     0.131 A
ATOM      4  F   UNL     1      30.753  15.919  -1.862  1.00  0.00    -0.207 F
ATOM      5  C   UNL     1      31.296  15.206  -4.058  1.00  0.00     0.038 A
ATOM      6  C   UNL     1      32.134  14.429  -4.853  1.00  0.00     0.131 A
ATOM      7  F   UNL     1      32.016  14.474  -6.189  1.00  0.00    -0.207 F
ATOM      8  C   UNL     1      33.092  13.581  -4.297  1.00  0.00     0.048 A
ENDROOT
BRANCH   1   9
ATOM      9  C   UNL     1      34.140  12.478  -2.300  1.00  0.00     0.010 A
ATOM     10  C   UNL     1      32.435   9.408  -3.162  1.00  0.00     0.089 A
ATOM     11  C   UNL     1      33.229   8.477  -2.524  1.00  0.00     0.140 A
ATOM     12  N   UNL     1      32.746  10.723  -3.107  1.00  0.00    -0.244 NA
ATOM     13  N   UNL     1      34.345   8.822  -1.832  1.00  0.00    -0.252 NA
ATOM     14  C   UNL     1      33.831  11.108  -2.409  1.00  0.00     0.097 A
ATOM     15  C   UNL     1      34.642  10.140  -1.773  1.00  0.00     0.089 A
ATOM     16  C   UNL     1      35.760  10.566  -1.069  1.00  0.00     0.030 A
ATOM     17  C   UNL     1      35.273  12.873  -1.575  1.00  0.00     0.011 A
ATOM     18  C   UNL     1      36.084  11.920  -0.967  1.00  0.00     0.003 A
BRANCH  10  19
ATOM     19  C   UNL     1      31.218   9.124  -3.919  1.00  0.00     0.002 A
ATOM     20  C   UNL     1      29.143   8.536  -5.787  1.00  0.00     0.037 A
ATOM     21  C   UNL     1      29.917   7.522  -5.212  1.00  0.00     0.026 A
ATOM     22  C   UNL     1      29.362   9.841  -5.322  1.00  0.00     0.026 A
ATOM     23  C   UNL     1      30.941   7.807  -4.307  1.00  0.00     0.012 A
ATOM     24  C   UNL     1      30.382  10.136  -4.402  1.00  0.00     0.012 A
BRANCH  20  25
ATOM     25  N   UNL     1      28.259   8.275  -6.820  1.00  0.00    -0.365 N
ATOM     26  N   UNL     1      26.534   8.551  -9.252  1.00  0.00    -0.303 NA
ATOM     27  C   UNL     1      27.988   8.818  -9.211  1.00  0.00     0.105 C
ATOM     28  C   UNL     1      26.040   8.019  -7.963  1.00  0.00     0.110 C
ATOM     29  C   UNL     1      28.763   7.978  -8.170  1.00  0.00     0.132 C
ATOM     30  C   UNL     1      26.790   8.507  -6.682  1.00  0.00     0.106 C
ATOM     31  C   UNL     1      25.803   9.750  -9.655  1.00  0.00     0.105 C
ATOM     32  G   UNL     1      26.205   7.764  -5.444  1.00  0.00     0.000 C
ENDBRANCH  20  25
ENDBRANCH  10  19
ENDBRANCH   1   9
BRANCH   5  33
ATOM     33  C   UNL     1      30.232  16.088  -4.655  1.00  0.00     0.126 C
BRANCH  33  34
ATOM     34  N   UNL     1      29.222  15.323  -5.399  1.00  0.00    -0.291 NA
ATOM     35  C   UNL     1      28.678  14.230  -4.563  1.00  0.00     0.113 C
ATOM     36  C   UNL     1      28.131  16.068  -6.105  1.00  0.00     0.092 C
ATOM     37  C   UNL     1      27.346  13.694  -5.092  1.00  0.00     0.175 C
ATOM     38  C   UNL     1      26.815  16.024  -5.283  1.00  0.00     0.180 C
ATOM     39  O   UNL     1      26.320  14.692  -5.055  1.00  0.00    -0.378 OA
BRANCH  36  40
ATOM     40  C   UNL     1      28.467  17.502  -6.577  1.00  0.00     0.091 C
BRANCH  40  41
ATOM     41  S   UNL     1      27.016  18.564  -6.976  1.00  0.00    -0.158 SA
BRANCH  41  42
ATOM     42  C   UNL     1      27.876  20.138  -7.369  1.00  0.00     0.096 C
ATOM     43  G   UNL     1      29.203  20.272  -6.566  1.00  0.00     0.000 C
ENDBRANCH  41  42
ENDBRANCH  40  41
ENDBRANCH  36  40
ENDBRANCH  33  34
ENDBRANCH   5  33
TORSDOF 0
ENDMDL
MODEL 4
REMARK VINA RESULT:     -10.9      1.400      1.651
REMARK SMILES CN1CCN2c3ccc(cc3)-c3cnc4cccc(c4n3)-c3cc(F)c(c(F)c3)CN3CCOC[C@H]3CSC[C@@H]2C1
REMARK SMILES IDX 22 1 23 2 24 3 25 4 26 5 27 6 28 7 29 8 19 9 12 10 13 11
REMARK SMILES IDX 21 12 14 13 20 14 15 15 16 16 18 17 17 18 9 19 6 20 7 21
REMARK SMILES IDX 11 22 8 23 10 24 5 25 2 26 3 27 41 28 4 29 40 30 1 31 30 33
REMARK SMILES IDX 31 34 32 35 36 36 33 37 35 38 34 39 37 40 38 41 39 42
REMARK H PARENT
REMARK Flexibility Score:   82.900
ROOT
ATOM      1  C   UNL     1      33.200  13.370  -3.451  1.00  0.00    -0.010 A
ATOM      2  C   UNL     1      32.155  12.905  -4.261  1.00  0.00     0.048 A
ATOM      3  C   UNL     1      31.452  13.786  -5.084  1.00  0.00     0.131 A
ATOM      4  F   UNL     1      30.458  13.292  -5.838  1.00  0.00    -0.207 F
ATOM      5  C   UNL     1      31.757  15.148  -5.137  1.00  0.00     0.038 A
ATOM      6  C   UNL     1      32.758  15.612  -4.287  1.00  0.00     0.131 A
ATOM      7  F   UNL     1      33.066  16.917  -4.268  1.00  0.00    -0.207 F
ATOM      8  C   UNL     1      33.473  14.747  -3.457  1.00  0.00     0.048 A
ENDROOT
BRANCH   1   9
ATOM      9  C   UNL     1      34.052  12.423  -2.702  1.00  0.00     0.010 A
ATOM     10  C   UNL     1      32.293   9.311  -3.239  1.00  0.00     0.089 A
ATOM     11  C   UNL     1      33.045   8.447  -2.470  1.00  0.00     0.140 A
ATOM     12  N   UNL     1      32.636  10.615  -3.333  1.00  0.00    -0.244 NA
ATOM     13  N   UNL     1      34.151   8.847  -1.791  1.00  0.00    -0.252 NA
ATOM     14  C   UNL     1      33.711  11.057  -2.655  1.00  0.00     0.097 A
ATOM     15  C   UNL     1      34.480  10.156  -1.883  1.00  0.00     0.089 A
ATOM     16  C   UNL     1      35.588  10.639  -1.202  1.00  0.00     0.030 A
ATOM     17  C   UNL     1      35.175  12.878  -1.996  1.00  0.00     0.011 A
ATOM     18  C   UNL     1      35.945  11.988  -1.254  1.00  0.00     0.003 A
BRANCH  10  19
ATOM     19  C   UNL     1      31.089   8.964  -3.993  1.00  0.00     0.002 A
ATOM     20  C   UNL     1      29.044   8.259  -5.852  1.00  0.00     0.037 A
ATOM     21  C   UNL     1      29.857   7.288  -5.258  1.00  0.00     0.026 A
ATOM     22  C   UNL     1      29.209   9.580  -5.410  1.00  0.00     0.026 A
ATOM     23  C   UNL     1      30.867   7.630  -4.357  1.00  0.00     0.012 A
ATOM     24  C   UNL     1      30.215   9.932  -4.495  1.00  0.00     0.012 A
BRANCH  20  25
ATOM     25  N   UNL     1      28.173   7.944  -6.882  1.00  0.00    -0.365 N
ATOM     26  N   UNL     1      26.480   8.092  -9.347  1.00  0.00    -0.303 NA
ATOM     27  C   UNL     1      27.934   8.360  -9.301  1.00  0.00     0.105 C
ATOM     28  C   UNL     1      25.969   7.629  -8.038  1.00  0.00     0.110 C
ATOM     29  C   UNL     1      28.694   7.576  -8.207  1.00  0.00     0.132 C
ATOM     30  C   UNL     1      26.703   8.183  -6.775  1.00  0.00     0.106 C
ATOM     31  C   UNL     1      25.756   9.269  -9.822  1.00  0.00     0.105 C
ATOM     32  G   UNL     1      26.101   7.507  -5.508  1.00  0.00     0.000 C
ENDBRANCH  20  25
ENDBRANCH  10  19
ENDBRANCH   1   9
BRANCH   5  33
ATOM     33  C   UNL     1      31.016  16.074  -6.065  1.00  0.00     0.126 C
BRANCH  33  34
ATOM     34  N   UNL     1      30.434  17.226  -5.361  1.00  0.00    -0.291 NA
ATOM     35  C   UNL     1      30.815  18.490  -6.031  1.00  0.00     0.113 C
ATOM     36  C   UNL     1      28.975  17.202  -5.024  1.00  0.00     0.092 C
ATOM     37  C   UNL     1      29.908  19.658  -5.637  1.00  0.00     0.175 C
ATOM     38  C   UNL     1      28.164  18.060  -6.032  1.00  0.00     0.180 C
ATOM     39  O   UNL     1      28.556  19.445  -6.058  1.00  0.00    -0.378 OA
BRANCH  36  40
ATOM     40  C   UNL     1      28.338  15.808  -4.812  1.00  0.00     0.091 C
BRANCH  40  41
ATOM     41  S   UNL     1      26.851  15.454  -5.839  1.00  0.00    -0.158 SA
BRANCH  41  42
ATOM     42  C   UNL     1      27.590  14.324  -7.083  1.00  0.00     0.096 C
ATOM     43  G   UNL     1      27.164  12.848  -6.829  1.00  0.00     0.000 C
ENDBRANCH  41  42
ENDBRANCH  40  41
ENDBRANCH  36  40
ENDBRANCH  33  34
ENDBRANCH   5  33
TORSDOF 0
ENDMDL
MODEL 5
REMARK VINA RESULT:     -10.7      1.920      2.854
REMARK SMILES CN1CCN2c3ccc(cc3)-c3cnc4cccc(c4n3)-c3cc(F)c(c(F)c3)CN3CCOC[C@H]3CSC[C@@H]2C1
REMARK SMILES IDX 22 1 23 2 24 3 25 4 26 5 27 6 28 7 29 8 19 9 12 10 13 11
REMARK SMILES IDX 21 12 14 13 20 14 15 15 16 16 18 17 17 18 9 19 6 20 7 21
REMARK SMILES IDX 11 22 8 23 10 24 5 25 2 26 3 27 41 28 4 29 40 30 1 31 30 33
REMARK SMILES IDX 31 34 32 35 36 36 33 37 35 38 34 39 37 40 38 41 39 42
REMARK H PARENT
REMARK Flexibility Score:   82.900
ROOT
ATOM      1  C   UNL     1      33.118  13.486  -2.984  1.00  0.00    -0.010 A
ATOM      2  C   UNL     1      32.311  14.307  -2.184  1.00  0.00     0.048 A
ATOM      3  C   UNL     1      31.329  15.114  -2.761  1.00  0.00     0.131 A
ATOM      4  F   UNL     1      30.585  15.883  -1.951  1.00  0.00    -0.207 F
ATOM      5  C   UNL     1      31.109  15.135  -4.141  1.00  0.00     0.038 A
ATOM      6  C   UNL     1      31.953  14.360  -4.933  1.00  0.00     0.131 A
ATOM      7  F   UNL     1      31.812  14.373  -6.267  1.00  0.00    -0.207 F
ATOM      8  C   UNL     1      32.940  13.547  -4.375  1.00  0.00     0.048 A
ENDROOT
BRANCH   1   9
ATOM      9  C   UNL     1      34.046  12.513  -2.372  1.00  0.00     0.010 A
ATOM     10  C   UNL     1      32.403   9.386  -3.143  1.00  0.00     0.089 A
ATOM     11  C   UNL     1      33.230   8.489  -2.498  1.00  0.00     0.140 A
ATOM     12  N   UNL     1      32.683  10.709  -3.120  1.00  0.00    -0.244 NA
ATOM     13  N   UNL     1      34.348   8.874  -1.832  1.00  0.00    -0.252 NA
ATOM     14  C   UNL     1      33.769  11.134  -2.449  1.00  0.00     0.097 A
ATOM     15  C   UNL     1      34.613  10.200  -1.806  1.00  0.00     0.089 A
ATOM     16  C   UNL     1      35.731  10.667  -1.129  1.00  0.00     0.030 A
ATOM     17  C   UNL     1      35.181  12.951  -1.674  1.00  0.00     0.011 A
ATOM     18  C   UNL     1      36.024  12.031  -1.060  1.00  0.00     0.003 A
BRANCH  10  19
ATOM     19  C   UNL     1      31.181   9.057  -3.875  1.00  0.00     0.002 A
ATOM     20  C   UNL     1      29.089   8.401  -5.700  1.00  0.00     0.037 A
ATOM     21  C   UNL     1      29.924   7.416  -5.161  1.00  0.00     0.026 A
ATOM     22  C   UNL     1      29.259   9.708  -5.219  1.00  0.00     0.026 A
ATOM     23  C   UNL     1      30.957   7.734  -4.278  1.00  0.00     0.012 A
ATOM     24  C   UNL     1      30.288  10.036  -4.320  1.00  0.00     0.012 A
BRANCH  20  25
ATOM     25  N   UNL     1      28.192   8.115  -6.715  1.00  0.00    -0.365 N
ATOM     26  N   UNL     1      26.466   8.318  -9.154  1.00  0.00    -0.303 NA
ATOM     27  C   UNL     1      27.929   8.537  -9.131  1.00  0.00     0.105 C
ATOM     28  C   UNL     1      25.961   7.873  -7.836  1.00  0.00     0.110 C
ATOM     29  C   UNL     1      28.680   7.728  -8.048  1.00  0.00     0.132 C
ATOM     30  C   UNL     1      26.733   8.403  -6.585  1.00  0.00     0.106 C
ATOM     31  C   UNL     1      25.775   9.518  -9.619  1.00  0.00     0.105 C
ATOM     32  G   UNL     1      26.129   7.748  -5.308  1.00  0.00     0.000 C
ENDBRANCH  20  25
ENDBRANCH  10  19
ENDBRANCH   1   9
BRANCH   5  33
ATOM     33  C   UNL     1      30.015  15.979  -4.739  1.00  0.00     0.126 C
BRANCH  33  34
ATOM     34  N   UNL     1      29.028  15.177  -5.476  1.00  0.00    -0.291 NA
ATOM     35  C   UNL     1      28.735  13.919  -4.752  1.00  0.00     0.113 C
ATOM     36  C   UNL     1      27.774  15.840  -5.953  1.00  0.00     0.092 C
ATOM     37  C   UNL     1      27.428  13.270  -5.213  1.00  0.00     0.175 C
ATOM     38  C   UNL     1      26.583  15.505  -5.014  1.00  0.00     0.180 C
ATOM     39  O   UNL     1      26.295  14.098  -4.928  1.00  0.00    -0.378 OA
BRANCH  36  40
ATOM     40  C   UNL     1      27.863  17.357  -6.249  1.00  0.00     0.091 C
BRANCH  40  41
ATOM     41  S   UNL     1      26.433  18.070  -7.164  1.00  0.00    -0.158 SA
BRANCH  41  42
ATOM     42  C   UNL     1      26.459  17.010  -8.663  1.00  0.00     0.096 C
ATOM     43  G   UNL     1      25.031  16.841  -9.260  1.00  0.00     0.000 C
ENDBRANCH  41  42
ENDBRANCH  40  41
ENDBRANCH  36  40
ENDBRANCH  33  34
ENDBRANCH   5  33
TORSDOF 0
ENDMDL
MODEL 6
REMARK VINA RESULT:     -10.6      1.582      2.512
REMARK SMILES CN1CCN2c3ccc(cc3)-c3cnc4cccc(c4n3)-c3cc(F)c(c(F)c3)CN3CCOC[C@H]3CSC[C@@H]2C1
REMARK SMILES IDX 22 1 23 2 24 3 25 4 26 5 27 6 28 7 29 8 19 9 12 10 13 11
REMARK SMILES IDX 21 12 14 13 20 14 15 15 16 16 18 17 17 18 9 19 6 20 7 21
REMARK SMILES IDX 11 22 8 23 10 24 5 25 2 26 3 27 41 28 4 29 40 30 1 31 30 33
REMARK SMILES IDX 31 34 32 35 36 36 33 37 35 38 34 39 37 40 38 41 39 42
REMARK H PARENT
REMARK Flexibility Score:   82.900
ROOT
ATOM      1  C   UNL     1      33.216  13.516  -2.922  1.00  0.00    -0.010 A
ATOM      2  C   UNL     1      33.719  14.695  -3.488  1.00  0.00     0.048 A
ATOM      3  C   UNL     1      32.852  15.706  -3.905  1.00  0.00     0.131 A
ATOM      4  F   UNL     1      33.384  16.815  -4.443  1.00  0.00    -0.207 F
ATOM      5  C   UNL     1      31.466  15.589  -3.774  1.00  0.00     0.038 A
ATOM      6  C   UNL     1      30.972  14.391  -3.264  1.00  0.00     0.131 A
ATOM      7  F   UNL     1      29.648  14.209  -3.153  1.00  0.00    -0.207 F
ATOM      8  C   UNL     1      31.823  13.369  -2.842  1.00  0.00     0.048 A
ENDROOT
BRANCH   1   9
ATOM      9  C   UNL     1      34.128  12.513  -2.333  1.00  0.00     0.010 A
ATOM     10  C   UNL     1      32.431   9.433  -3.174  1.00  0.00     0.089 A
ATOM     11  C   UNL     1      33.243   8.507  -2.551  1.00  0.00     0.140 A
ATOM     12  N   UNL     1      32.734  10.750  -3.121  1.00  0.00    -0.244 NA
ATOM     13  N   UNL     1      34.368   8.858  -1.877  1.00  0.00    -0.252 NA
ATOM     14  C   UNL     1      33.827  11.141  -2.441  1.00  0.00     0.097 A
ATOM     15  C   UNL     1      34.656  10.178  -1.820  1.00  0.00     0.089 A
ATOM     16  C   UNL     1      35.781  10.611  -1.133  1.00  0.00     0.030 A
ATOM     17  C   UNL     1      35.270  12.915  -1.626  1.00  0.00     0.011 A
ATOM     18  C   UNL     1      36.098  11.967  -1.033  1.00  0.00     0.003 A
BRANCH  10  19
ATOM     19  C   UNL     1      31.204   9.142  -3.913  1.00  0.00     0.002 A
ATOM     20  C   UNL     1      29.102   8.552  -5.749  1.00  0.00     0.037 A
ATOM     21  C   UNL     1      29.906   7.542  -5.210  1.00  0.00     0.026 A
ATOM     22  C   UNL     1      29.308   9.852  -5.263  1.00  0.00     0.026 A
ATOM     23  C   UNL     1      30.943   7.828  -4.321  1.00  0.00     0.012 A
ATOM     24  C   UNL     1      30.341  10.148  -4.359  1.00  0.00     0.012 A
BRANCH  20  25
ATOM     25  N   UNL     1      28.202   8.295  -6.769  1.00  0.00    -0.365 N
ATOM     26  N   UNL     1      26.429   8.585  -9.165  1.00  0.00    -0.303 NA
ATOM     27  C   UNL     1      27.880   8.867  -9.147  1.00  0.00     0.105 C
ATOM     28  C   UNL     1      25.965   8.031  -7.874  1.00  0.00     0.110 C
ATOM     29  C   UNL     1      28.684   8.022  -8.132  1.00  0.00     0.132 C
ATOM     30  C   UNL     1      26.733   8.509  -6.600  1.00  0.00     0.106 C
ATOM     31  C   UNL     1      25.677   9.781  -9.538  1.00  0.00     0.105 C
ATOM     32  G   UNL     1      26.180   7.743  -5.363  1.00  0.00     0.000 C
ENDBRANCH  20  25
ENDBRANCH  10  19
ENDBRANCH   1   9
BRANCH   5  33
ATOM     33  C   UNL     1      30.550  16.710  -4.189  1.00  0.00     0.126 C
BRANCH  33  34
ATOM     34  N   UNL     1      30.275  16.706  -5.632  1.00  0.00    -0.291 NA
ATOM     35  C   UNL     1      29.111  15.844  -5.937  1.00  0.00     0.113 C
ATOM     36  C   UNL     1      30.192  18.016  -6.353  1.00  0.00     0.092 C
ATOM     37  C   UNL     1      28.508  16.140  -7.312  1.00  0.00     0.175 C
ATOM     38  C   UNL     1      28.711  18.417  -6.593  1.00  0.00     0.180 C
ATOM     39  O   UNL     1      27.976  17.467  -7.384  1.00  0.00    -0.378 OA
BRANCH  36  40
ATOM     40  C   UNL     1      31.016  19.184  -5.762  1.00  0.00     0.091 C
BRANCH  40  41
ATOM     41  S   UNL     1      32.753  19.308  -6.358  1.00  0.00    -0.158 SA
BRANCH  41  42
ATOM     42  C   UNL     1      33.337  20.718  -5.336  1.00  0.00     0.096 C
ATOM     43  G   UNL     1      32.699  22.058  -5.806  1.00  0.00     0.000 C
ENDBRANCH  41  42
ENDBRANCH  40  41
ENDBRANCH  36  40
ENDBRANCH  33  34
ENDBRANCH   5  33
TORSDOF 0
ENDMDL
MODEL 7
REMARK VINA RESULT:     -10.6      1.364      2.341
REMARK SMILES CN1CCN2c3ccc(cc3)-c3cnc4cccc(c4n3)-c3cc(F)c(c(F)c3)CN3CCOC[C@H]3CSC[C@@H]2C1
REMARK SMILES IDX 22 1 23 2 24 3 25 4 26 5 27 6 28 7 29 8 19 9 12 10 13 11
REMARK SMILES IDX 21 12 14 13 20 14 15 15 16 16 18 17 17 18 9 19 6 20 7 21
REMARK SMILES IDX 11 22 8 23 10 24 5 25 2 26 3 27 41 28 4 29 40 30 1 31 30 33
REMARK SMILES IDX 31 34 32 35 36 36 33 37 35 38 34 39 37 40 38 41 39 42
REMARK H PARENT
REMARK Flexibility Score:   82.900
ROOT
ATOM      1  C   UNL     1      32.995  13.495  -2.984  1.00  0.00    -0.010 A
ATOM      2  C   UNL     1      32.928  13.699  -4.369  1.00  0.00     0.048 A
ATOM      3  C   UNL     1      32.126  14.712  -4.898  1.00  0.00     0.131 A
ATOM      4  F   UNL     1      32.095  14.864  -6.231  1.00  0.00    -0.207 F
ATOM      5  C   UNL     1      31.369  15.555  -4.081  1.00  0.00     0.038 A
ATOM      6  C   UNL     1      31.397  15.309  -2.710  1.00  0.00     0.131 A
ATOM      7  F   UNL     1      30.658  16.063  -1.882  1.00  0.00    -0.207 F
ATOM      8  C   UNL     1      32.192  14.302  -2.163  1.00  0.00     0.048 A
ENDROOT
BRANCH   1   9
ATOM      9  C   UNL     1      33.961  12.537  -2.409  1.00  0.00     0.010 A
ATOM     10  C   UNL     1      32.384   9.382  -3.202  1.00  0.00     0.089 A
ATOM     11  C   UNL     1      33.247   8.495  -2.591  1.00  0.00     0.140 A
ATOM     12  N   UNL     1      32.630  10.711  -3.161  1.00  0.00    -0.244 NA
ATOM     13  N   UNL     1      34.368   8.898  -1.940  1.00  0.00    -0.252 NA
ATOM     14  C   UNL     1      33.718  11.153  -2.504  1.00  0.00     0.097 A
ATOM     15  C   UNL     1      34.600  10.230  -1.896  1.00  0.00     0.089 A
ATOM     16  C   UNL     1      35.719  10.714  -1.233  1.00  0.00     0.030 A
ATOM     17  C   UNL     1      35.098  12.991  -1.726  1.00  0.00     0.011 A
ATOM     18  C   UNL     1      35.978  12.083  -1.145  1.00  0.00     0.003 A
BRANCH  10  19
ATOM     19  C   UNL     1      31.156   9.033  -3.915  1.00  0.00     0.002 A
ATOM     20  C   UNL     1      29.049   8.328  -5.705  1.00  0.00     0.037 A
ATOM     21  C   UNL     1      29.887   7.357  -5.143  1.00  0.00     0.026 A
ATOM     22  C   UNL     1      29.225   9.648  -5.263  1.00  0.00     0.026 A
ATOM     23  C   UNL     1      30.927   7.700  -4.278  1.00  0.00     0.012 A
ATOM     24  C   UNL     1      30.261  10.000  -4.382  1.00  0.00     0.012 A
BRANCH  20  25
ATOM     25  N   UNL     1      28.145   8.014  -6.704  1.00  0.00    -0.365 N
ATOM     26  N   UNL     1      26.398   8.150  -9.133  1.00  0.00    -0.303 NA
ATOM     27  C   UNL     1      27.860   8.372  -9.128  1.00  0.00     0.105 C
ATOM     28  C   UNL     1      25.904   7.740  -7.800  1.00  0.00     0.110 C
ATOM     29  C   UNL     1      28.621   7.593  -8.031  1.00  0.00     0.132 C
ATOM     30  C   UNL     1      26.686   8.303  -6.570  1.00  0.00     0.106 C
ATOM     31  C   UNL     1      25.700   9.336  -9.623  1.00  0.00     0.105 C
ATOM     32  G   UNL     1      26.094   7.682  -5.271  1.00  0.00     0.000 C
ENDBRANCH  20  25
ENDBRANCH  10  19
ENDBRANCH   1   9
BRANCH   5  33
ATOM     33  C   UNL     1      30.545  16.670  -4.668  1.00  0.00     0.126 C
BRANCH  33  34
ATOM     34  N   UNL     1      29.426  16.173  -5.481  1.00  0.00    -0.291 NA
ATOM     35  C   UNL     1      28.479  15.401  -4.645  1.00  0.00     0.113 C
ATOM     36  C   UNL     1      28.709  17.131  -6.381  1.00  0.00     0.092 C
ATOM     37  C   UNL     1      27.108  15.244  -5.307  1.00  0.00     0.175 C
ATOM     38  C   UNL     1      27.370  17.587  -5.741  1.00  0.00     0.180 C
ATOM     39  O   UNL     1      26.456  16.506  -5.482  1.00  0.00    -0.378 OA
BRANCH  36  40
ATOM     40  C   UNL     1      29.531  18.330  -6.910  1.00  0.00     0.091 C
BRANCH  40  41
ATOM     41  S   UNL     1      29.324  19.904  -5.980  1.00  0.00    -0.158 SA
BRANCH  41  42
ATOM     42  C   UNL     1      31.079  20.269  -5.583  1.00  0.00     0.096 C
ATOM     43  G   UNL     1      31.198  21.483  -4.615  1.00  0.00     0.000 C
ENDBRANCH  41  42
ENDBRANCH  40  41
ENDBRANCH  36  40
ENDBRANCH  33  34
ENDBRANCH   5  33
TORSDOF 0
ENDMDL
MODEL 8
REMARK VINA RESULT:     -10.6      1.813      3.209
REMARK SMILES CN1CCN2c3ccc(cc3)-c3cnc4cccc(c4n3)-c3cc(F)c(c(F)c3)CN3CCOC[C@H]3CSC[C@@H]2C1
REMARK SMILES IDX 22 1 23 2 24 3 25 4 26 5 27 6 28 7 29 8 19 9 12 10 13 11
REMARK SMILES IDX 21 12 14 13 20 14 15 15 16 16 18 17 17 18 9 19 6 20 7 21
REMARK SMILES IDX 11 22 8 23 10 24 5 25 2 26 3 27 41 28 4 29 40 30 1 31 30 33
REMARK SMILES IDX 31 34 32 35 36 36 33 37 35 38 34 39 37 40 38 41 39 42
REMARK H PARENT
REMARK Flexibility Score:   82.900
ROOT
ATOM      1  C   UNL     1      33.053  13.467  -3.000  1.00  0.00    -0.010 A
ATOM      2  C   UNL     1      32.357  14.351  -2.165  1.00  0.00     0.048 A
ATOM      3  C   UNL     1      31.423  15.241  -2.698  1.00  0.00     0.131 A
ATOM      4  F   UNL     1      30.785  16.069  -1.856  1.00  0.00    -0.207 F
ATOM      5  C   UNL     1      31.145  15.286  -4.066  1.00  0.00     0.038 A
ATOM      6  C   UNL     1      31.882  14.445  -4.895  1.00  0.00     0.131 A
ATOM      7  F   UNL     1      31.683  14.474  -6.222  1.00  0.00    -0.207 F
ATOM      8  C   UNL     1      32.819  13.548  -4.382  1.00  0.00     0.048 A
ENDROOT
BRANCH   1   9
ATOM      9  C   UNL     1      33.921  12.416  -2.430  1.00  0.00     0.010 A
ATOM     10  C   UNL     1      32.191   9.422  -3.482  1.00  0.00     0.089 A
ATOM     11  C   UNL     1      32.958   8.447  -2.877  1.00  0.00     0.140 A
ATOM     12  N   UNL     1      32.519  10.727  -3.353  1.00  0.00    -0.244 NA
ATOM     13  N   UNL     1      34.065   8.739  -2.147  1.00  0.00    -0.252 NA
ATOM     14  C   UNL     1      33.595  11.059  -2.616  1.00  0.00     0.097 A
ATOM     15  C   UNL     1      34.379  10.048  -2.015  1.00  0.00     0.089 A
ATOM     16  C   UNL     1      35.488  10.419  -1.268  1.00  0.00     0.030 A
ATOM     17  C   UNL     1      35.045  12.756  -1.663  1.00  0.00     0.011 A
ATOM     18  C   UNL     1      35.830  11.761  -1.089  1.00  0.00     0.003 A
BRANCH  10  19
ATOM     19  C   UNL     1      30.985   9.195  -4.277  1.00  0.00     0.002 A
ATOM     20  C   UNL     1      28.406   8.703  -5.394  1.00  0.00     0.037 A
ATOM     21  C   UNL     1      28.780   9.977  -4.951  1.00  0.00     0.026 A
ATOM     22  C   UNL     1      29.394   7.707  -5.362  1.00  0.00     0.026 A
ATOM     23  C   UNL     1      30.036  10.219  -4.393  1.00  0.00     0.012 A
ATOM     24  C   UNL     1      30.665   7.945  -4.814  1.00  0.00     0.012 A
BRANCH  20  25
ATOM     25  N   UNL     1      27.104   8.419  -5.770  1.00  0.00    -0.365 N
ATOM     26  N   UNL     1      24.574   6.978  -6.468  1.00  0.00    -0.303 NA
ATOM     27  C   UNL     1      25.314   6.823  -5.197  1.00  0.00     0.105 C
ATOM     28  C   UNL     1      25.176   8.023  -7.326  1.00  0.00     0.110 C
ATOM     29  C   UNL     1      26.096   8.082  -4.755  1.00  0.00     0.132 C
ATOM     30  C   UNL     1      26.722   8.215  -7.199  1.00  0.00     0.106 C
ATOM     31  C   UNL     1      24.480   5.698  -7.166  1.00  0.00     0.105 C
ATOM     32  G   UNL     1      27.153   9.419  -8.088  1.00  0.00     0.000 C
ENDBRANCH  20  25
ENDBRANCH  10  19
ENDBRANCH   1   9
BRANCH   5  33
ATOM     33  C   UNL     1      30.101  16.222  -4.615  1.00  0.00     0.126 C
BRANCH  33  34
ATOM     34  N   UNL     1      29.063  15.518  -5.382  1.00  0.00    -0.291 NA
ATOM     35  C   UNL     1      28.338  14.560  -4.517  1.00  0.00     0.113 C
ATOM     36  C   UNL     1      28.120  16.322  -6.222  1.00  0.00     0.092 C
ATOM     37  C   UNL     1      26.994  14.137  -5.113  1.00  0.00     0.175 C
ATOM     38  C   UNL     1      26.752  16.489  -5.506  1.00  0.00     0.180 C
ATOM     39  O   UNL     1      26.091  15.242  -5.226  1.00  0.00    -0.378 OA
BRANCH  36  40
ATOM     40  C   UNL     1      28.653  17.669  -6.765  1.00  0.00     0.091 C
BRANCH  40  41
ATOM     41  S   UNL     1      27.600  19.137  -6.411  1.00  0.00    -0.158 SA
BRANCH  41  42
ATOM     42  C   UNL     1      28.795  20.480  -6.785  1.00  0.00     0.096 C
ATOM     43  G   UNL     1      30.152  20.247  -6.057  1.00  0.00     0.000 C
ENDBRANCH  41  42
ENDBRANCH  40  41
ENDBRANCH  36  40
ENDBRANCH  33  34
ENDBRANCH   5  33
TORSDOF 0
ENDMDL
MODEL 9
REMARK VINA RESULT:     -10.6      1.479      2.117
REMARK SMILES CN1CCN2c3ccc(cc3)-c3cnc4cccc(c4n3)-c3cc(F)c(c(F)c3)CN3CCOC[C@H]3CSC[C@@H]2C1
REMARK SMILES IDX 22 1 23 2 24 3 25 4 26 5 27 6 28 7 29 8 19 9 12 10 13 11
REMARK SMILES IDX 21 12 14 13 20 14 15 15 16 16 18 17 17 18 9 19 6 20 7 21
REMARK SMILES IDX 11 22 8 23 10 24 5 25 2 26 3 27 41 28 4 29 40 30 1 31 30 33
REMARK SMILES IDX 31 34 32 35 36 36 33 37 35 38 34 39 37 40 38 41 39 42
REMARK H PARENT
REMARK Flexibility Score:   82.900
ROOT
ATOM      1  C   UNL     1      33.056  13.449  -3.051  1.00  0.00    -0.010 A
ATOM      2  C   UNL     1      32.987  13.591  -4.444  1.00  0.00     0.048 A
ATOM      3  C   UNL     1      32.206  14.598  -5.015  1.00  0.00     0.131 A
ATOM      4  F   UNL     1      32.172  14.690  -6.353  1.00  0.00    -0.207 F
ATOM      5  C   UNL     1      31.473  15.495  -4.234  1.00  0.00     0.038 A
ATOM      6  C   UNL     1      31.502  15.311  -2.854  1.00  0.00     0.131 A
ATOM      7  F   UNL     1      30.786  16.119  -2.059  1.00  0.00    -0.207 F
ATOM      8  C   UNL     1      32.276  14.311  -2.264  1.00  0.00     0.048 A
ENDROOT
BRANCH   1   9
ATOM      9  C   UNL     1      34.001  12.494  -2.437  1.00  0.00     0.010 A
ATOM     10  C   UNL     1      32.404   9.338  -3.183  1.00  0.00     0.089 A
ATOM     11  C   UNL     1      33.247   8.457  -2.535  1.00  0.00     0.140 A
ATOM     12  N   UNL     1      32.664  10.665  -3.169  1.00  0.00    -0.244 NA
ATOM     13  N   UNL     1      34.361   8.864  -1.875  1.00  0.00    -0.252 NA
ATOM     14  C   UNL     1      33.745  11.111  -2.504  1.00  0.00     0.097 A
ATOM     15  C   UNL     1      34.606  10.194  -1.858  1.00  0.00     0.089 A
ATOM     16  C   UNL     1      35.718  10.683  -1.188  1.00  0.00     0.030 A
ATOM     17  C   UNL     1      35.131  12.954  -1.745  1.00  0.00     0.011 A
ATOM     18  C   UNL     1      35.990  12.051  -1.128  1.00  0.00     0.003 A
BRANCH  10  19
ATOM     19  C   UNL     1      31.185   8.985  -3.908  1.00  0.00     0.002 A
ATOM     20  C   UNL     1      29.103   8.254  -5.716  1.00  0.00     0.037 A
ATOM     21  C   UNL     1      29.914   7.289  -5.108  1.00  0.00     0.026 A
ATOM     22  C   UNL     1      29.291   9.585  -5.313  1.00  0.00     0.026 A
ATOM     23  C   UNL     1      30.942   7.644  -4.233  1.00  0.00     0.012 A
ATOM     24  C   UNL     1      30.314   9.950  -4.423  1.00  0.00     0.012 A
BRANCH  20  25
ATOM     25  N   UNL     1      28.213   7.921  -6.723  1.00  0.00    -0.365 N
ATOM     26  N   UNL     1      26.526   8.000  -9.196  1.00  0.00    -0.303 NA
ATOM     27  C   UNL     1      27.993   8.183  -9.166  1.00  0.00     0.105 C
ATOM     28  C   UNL     1      25.991   7.660  -7.859  1.00  0.00     0.110 C
ATOM     29  C   UNL     1      28.708   7.432  -8.018  1.00  0.00     0.132 C
ATOM     30  C   UNL     1      26.760   8.254  -6.636  1.00  0.00     0.106 C
ATOM     31  C   UNL     1      25.873   9.182  -9.752  1.00  0.00     0.105 C
ATOM     32  G   UNL     1      26.122   7.705  -5.326  1.00  0.00     0.000 C
ENDBRANCH  20  25
ENDBRANCH  10  19
ENDBRANCH   1   9
BRANCH   5  33
ATOM     33  C   UNL     1      30.673  16.601  -4.869  1.00  0.00     0.126 C
BRANCH  33  34
ATOM     34  N   UNL     1      29.515  16.097  -5.620  1.00  0.00    -0.291 NA
ATOM     35  C   UNL     1      28.866  14.985  -4.889  1.00  0.00     0.113 C
ATOM     36  C   UNL     1      28.508  17.079  -6.133  1.00  0.00     0.092 C
ATOM     37  C   UNL     1      27.438  14.722  -5.373  1.00  0.00     0.175 C
ATOM     38  C   UNL     1      27.253  17.107  -5.219  1.00  0.00     0.180 C
ATOM     39  O   UNL     1      26.579  15.840  -5.124  1.00  0.00    -0.378 OA
BRANCH  36  40
ATOM     40  C   UNL     1      29.026  18.503  -6.444  1.00  0.00     0.091 C
BRANCH  40  41
ATOM     41  S   UNL     1      27.726  19.793  -6.638  1.00  0.00    -0.158 SA
BRANCH  41  42
ATOM     42  C   UNL     1      26.922  19.200  -8.179  1.00  0.00     0.096 C
ATOM     43  G   UNL     1      25.376  19.122  -8.015  1.00  0.00     0.000 C
ENDBRANCH  41  42
ENDBRANCH  40  41
ENDBRANCH  36  40
ENDBRANCH  33  34
ENDBRANCH   5  33
TORSDOF 0
ENDMDL
