MODEL 1
REMARK VINA RESULT:      -8.2      0.000      0.000
REMARK SMILES N#C[C@@H]1CCN(C(=O)[C@@H]2NC(=O)c3c[nH]c4ncc(nc34)[C@@H]3C[C@H]3COCC23CC3)C1
REMARK SMILES IDX 13 1 14 2 15 3 16 4 17 5 18 6 19 7 20 8 21 9 11 11 10 12
REMARK SMILES IDX 12 13 9 15 7 16 8 17 6 18 1 19 2 20 3 21 4 22 31 23 5 24
REMARK SMILES IDX 28 25 29 26 30 27 22 29 23 30 24 31 25 32 26 33 27 34
REMARK H PARENT 15 10 10 14
REMARK Flexibility Score:  106.900
ROOT
ATOM      1  C   UNL     1      33.593  13.065  -2.550  1.00  0.00     0.085 A
ATOM      2  C   UNL     1      34.949  13.257  -2.329  1.00  0.00     0.100 A
ATOM      3  N   UNL     1      35.570  12.019  -2.298  1.00  0.00    -0.344 N
ATOM      4  C   UNL     1      34.643  11.031  -2.500  1.00  0.00     0.156 A
ATOM      5  N   UNL     1      34.842   9.697  -2.580  1.00  0.00    -0.235 NA
ATOM      6  C   UNL     1      33.659   9.045  -2.832  1.00  0.00     0.137 A
ATOM      7  C   UNL     1      32.404   9.651  -2.965  1.00  0.00     0.063 A
ATOM      8  N   UNL     1      32.279  10.981  -2.828  1.00  0.00    -0.247 NA
ATOM      9  C   UNL     1      33.423  11.663  -2.624  1.00  0.00     0.120 A
ATOM     10  H   UNL     1      36.558  11.851  -2.173  1.00  0.00     0.168 HD
ENDROOT
BRANCH   1  11
ATOM     11  C   UNL     1      32.529  14.056  -2.711  1.00  0.00     0.255 C
ATOM     12  N   UNL     1      31.981  14.045  -3.972  1.00  0.00    -0.339 N
ATOM     13  O   UNL     1      32.182  14.827  -1.823  1.00  0.00    -0.269 OA
ATOM     14  H   UNL     1      32.465  13.479  -4.666  1.00  0.00     0.164 HD
BRANCH  12  15
ATOM     15  C   UNL     1      31.051  15.011  -4.511  1.00  0.00     0.180 C
BRANCH  15  16
ATOM     16  C   UNL     1      31.850  15.861  -5.534  1.00  0.00     0.245 C
ATOM     17  O   UNL     1      32.614  15.345  -6.355  1.00  0.00    -0.272 OA
BRANCH  16  18
ATOM     18  N   UNL     1      31.722  17.237  -5.466  1.00  0.00    -0.340 N
ATOM     19  N   UNL     1      34.096  20.536  -5.393  1.00  0.00    -0.198 NA
ATOM     20  C   UNL     1      33.042  20.106  -5.613  1.00  0.00     0.067 C
ATOM     21  C   UNL     1      31.703  19.570  -5.906  1.00  0.00     0.114 C
ATOM     22  C   UNL     1      30.919  19.283  -4.624  1.00  0.00     0.042 C
ATOM     23  C   UNL     1      31.797  18.194  -6.564  1.00  0.00     0.138 C
ATOM     24  C   UNL     1      31.388  17.893  -4.215  1.00  0.00     0.121 C
ENDBRANCH  16  18
ENDBRANCH  15  16
BRANCH  15  25
ATOM     25  C   UNL     1      29.816  14.314  -5.123  1.00  0.00     0.023 C
ATOM     26  C   UNL     1      28.475  15.002  -4.891  1.00  0.00     0.013 C
ATOM     27  C   UNL     1      29.092  15.026  -6.256  1.00  0.00     0.013 C
ATOM     28  G   UNL     1      29.784  12.785  -5.154  1.00  0.00     0.000 C
ENDBRANCH  15  25
ENDBRANCH  12  15
ENDBRANCH   1  11
BRANCH   7  29
ATOM     29  C   UNL     1      31.105   8.945  -3.252  1.00  0.00     0.045 C
ATOM     30  C   UNL     1      30.966   7.613  -3.935  1.00  0.00     0.017 C
ATOM     31  C   UNL     1      30.760   8.866  -4.746  1.00  0.00     0.025 C
BRANCH  31  32
ATOM     32  C   UNL     1      29.431   9.336  -5.245  1.00  0.00     0.164 C
BRANCH  32  33
ATOM     33  O   UNL     1      28.798   8.297  -6.005  1.00  0.00    -0.380 OA
BRANCH  33  34
ATOM     34  C   UNL     1      29.130   8.321  -7.389  1.00  0.00     0.169 C
ATOM     35  G   UNL     1      28.410   7.193  -8.131  1.00  0.00     0.000 C
ENDBRANCH  33  34
ENDBRANCH  32  33
ENDBRANCH  31  32
ENDBRANCH   7  29
TORSDOF 2
ENDMDL
MODEL 2
REMARK VINA RESULT:      -8.1      1.006      1.305
REMARK SMILES N#C[C@@H]1CCN(C(=O)[C@@H]2NC(=O)c3c[nH]c4ncc(nc34)[C@@H]3C[C@H]3COCC23CC3)C1
REMARK SMILES IDX 13 1 14 2 15 3 16 4 17 5 18 6 19 7 20 8 21 9 11 11 10 12
REMARK SMILES IDX 12 13 9 15 7 16 8 17 6 18 1 19 2 20 3 21 4 22 31 23 5 24
REMARK SMILES IDX 28 25 29 26 30 27 22 29 23 30 24 31 25 32 26 33 27 34
REMARK H PARENT 15 10 10 14
REMARK Flexibility Score:  106.900
ROOT
ATOM      1  C   UNL     1      33.566  13.382  -2.691  1.00  0.00     0.085 A
ATOM      2  C   UNL     1      34.917  13.632  -2.502  1.00  0.00     0.100 A
ATOM      3  N   UNL     1      35.584  12.420  -2.437  1.00  0.00    -0.344 N
ATOM      4  C   UNL     1      34.692  11.391  -2.587  1.00  0.00     0.156 A
ATOM      5  N   UNL     1      34.940  10.063  -2.622  1.00  0.00    -0.235 NA
ATOM      6  C   UNL     1      33.778   9.359  -2.829  1.00  0.00     0.137 A
ATOM      7  C   UNL     1      32.500   9.913  -2.961  1.00  0.00     0.063 A
ATOM      8  N   UNL     1      32.326  11.242  -2.870  1.00  0.00    -0.247 NA
ATOM      9  C   UNL     1      33.447  11.972  -2.712  1.00  0.00     0.120 A
ATOM     10  H   UNL     1      36.580  12.293  -2.325  1.00  0.00     0.168 HD
ENDROOT
BRANCH   1  11
ATOM     11  C   UNL     1      32.462  14.326  -2.869  1.00  0.00     0.255 C
ATOM     12  N   UNL     1      32.222  14.619  -4.190  1.00  0.00    -0.339 N
ATOM     13  O   UNL     1      31.837  14.818  -1.936  1.00  0.00    -0.269 OA
ATOM     14  H   UNL     1      32.913  14.279  -4.857  1.00  0.00     0.164 HD
BRANCH  12  15
ATOM     15  C   UNL     1      31.338  15.644  -4.695  1.00  0.00     0.180 C
BRANCH  15  16
ATOM     16  C   UNL     1      32.189  16.519  -5.653  1.00  0.00     0.245 C
ATOM     17  O   UNL     1      32.910  16.022  -6.523  1.00  0.00    -0.272 OA
BRANCH  16  18
ATOM     18  N   UNL     1      32.158  17.891  -5.469  1.00  0.00    -0.340 N
ATOM     19  N   UNL     1      29.585  20.994  -5.995  1.00  0.00    -0.198 NA
ATOM     20  C   UNL     1      30.526  20.598  -5.444  1.00  0.00     0.067 C
ATOM     21  C   UNL     1      31.714  20.103  -4.731  1.00  0.00     0.114 C
ATOM     22  C   UNL     1      32.951  20.101  -5.632  1.00  0.00     0.042 C
ATOM     23  C   UNL     1      31.556  18.628  -4.365  1.00  0.00     0.138 C
ATOM     24  C   UNL     1      32.850  18.780  -6.384  1.00  0.00     0.121 C
ENDBRANCH  16  18
ENDBRANCH  15  16
BRANCH  15  25
ATOM     25  C   UNL     1      30.094  15.025  -5.369  1.00  0.00     0.023 C
ATOM     26  C   UNL     1      28.758  15.682  -5.041  1.00  0.00     0.013 C
ATOM     27  C   UNL     1      29.358  15.867  -6.401  1.00  0.00     0.013 C
ATOM     28  G   UNL     1      30.059  13.511  -5.580  1.00  0.00     0.000 C
ENDBRANCH  15  25
ENDBRANCH  12  15
ENDBRANCH   1  11
BRANCH   7  29
ATOM     29  C   UNL     1      31.223   9.149  -3.198  1.00  0.00     0.045 C
ATOM     30  C   UNL     1      31.090   7.907  -4.035  1.00  0.00     0.017 C
ATOM     31  C   UNL     1      30.712   9.232  -4.644  1.00  0.00     0.025 C
BRANCH  31  32
ATOM     32  C   UNL     1      29.307   9.656  -4.930  1.00  0.00     0.164 C
BRANCH  32  33
ATOM     33  O   UNL     1      28.632   8.639  -5.684  1.00  0.00    -0.380 OA
BRANCH  33  34
ATOM     34  C   UNL     1      29.106   8.511  -7.019  1.00  0.00     0.169 C
ATOM     35  G   UNL     1      28.935   7.073  -7.512  1.00  0.00     0.000 C
ENDBRANCH  33  34
ENDBRANCH  32  33
ENDBRANCH  31  32
ENDBRANCH   7  29
TORSDOF 2
ENDMDL
MODEL 3
REMARK VINA RESULT:      -8.1      3.143      5.563
REMARK SMILES N#C[C@@H]1CCN(C(=O)[C@@H]2NC(=O)c3c[nH]c4ncc(nc34)[C@@H]3C[C@H]3COCC23CC3)C1
REMARK SMILES IDX 13 1 14 2 15 3 16 4 17 5 18 6 19 7 20 8 21 9 11 11 10 12
REMARK SMILES IDX 12 13 9 15 7 16 8 17 6 18 1 19 2 20 3 21 4 22 31 23 5 24
REMARK SMILES IDX 28 25 29 26 30 27 22 29 23 30 24 31 25 32 26 33 27 34
REMARK H PARENT 15 10 10 14
REMARK Flexibility Score:  106.900
ROOT
ATOM      1  C   UNL     1      28.096  14.411  -6.284  1.00  0.00     0.085 A
ATOM      2  C   UNL     1      26.742  14.136  -6.161  1.00  0.00     0.100 A
ATOM      3  N   UNL     1      26.597  12.926  -5.502  1.00  0.00    -0.344 N
ATOM      4  C   UNL     1      27.830  12.417  -5.192  1.00  0.00     0.156 A
ATOM      5  N   UNL     1      28.125  11.282  -4.520  1.00  0.00    -0.235 NA
ATOM      6  C   UNL     1      29.485  11.144  -4.377  1.00  0.00     0.137 A
ATOM      7  C   UNL     1      30.452  12.025  -4.873  1.00  0.00     0.063 A
ATOM      8  N   UNL     1      30.083  13.110  -5.572  1.00  0.00    -0.247 NA
ATOM      9  C   UNL     1      28.756  13.307  -5.696  1.00  0.00     0.120 A
ATOM     10  H   UNL     1      25.724  12.482  -5.256  1.00  0.00     0.168 HD
ENDROOT
BRANCH   1  11
ATOM     11  C   UNL     1      28.757  15.584  -6.857  1.00  0.00     0.255 C
ATOM     12  N   UNL     1      29.894  15.940  -6.171  1.00  0.00    -0.339 N
ATOM     13  O   UNL     1      28.327  16.195  -7.830  1.00  0.00    -0.269 OA
ATOM     14  H   UNL     1      30.053  15.460  -5.287  1.00  0.00     0.164 HD
BRANCH  12  15
ATOM     15  C   UNL     1      30.667  17.146  -6.360  1.00  0.00     0.180 C
BRANCH  15  16
ATOM     16  C   UNL     1      30.123  18.177  -5.335  1.00  0.00     0.245 C
ATOM     17  O   UNL     1      29.144  17.934  -4.624  1.00  0.00    -0.272 OA
BRANCH  16  18
ATOM     18  N   UNL     1      30.742  19.414  -5.276  1.00  0.00    -0.340 N
ATOM     19  N   UNL     1      34.358  21.072  -6.107  1.00  0.00    -0.198 NA
ATOM     20  C   UNL     1      33.223  21.252  -5.952  1.00  0.00     0.067 C
ATOM     21  C   UNL     1      31.783  21.490  -5.766  1.00  0.00     0.114 C
ATOM     22  C   UNL     1      31.392  21.448  -4.287  1.00  0.00     0.042 C
ATOM     23  C   UNL     1      30.959  20.353  -6.369  1.00  0.00     0.138 C
ATOM     24  C   UNL     1      31.184  19.965  -4.008  1.00  0.00     0.121 C
ENDBRANCH  16  18
ENDBRANCH  15  16
BRANCH  15  25
ATOM     25  C   UNL     1      32.179  16.869  -6.209  1.00  0.00     0.023 C
ATOM     26  C   UNL     1      32.663  16.547  -4.799  1.00  0.00     0.013 C
ATOM     27  C   UNL     1      32.603  15.458  -5.826  1.00  0.00     0.013 C
ATOM     28  G   UNL     1      33.154  17.655  -7.087  1.00  0.00     0.000 C
ENDBRANCH  15  25
ENDBRANCH  12  15
ENDBRANCH   1  11
BRANCH   7  29
ATOM     29  C   UNL     1      31.944  11.885  -4.712  1.00  0.00     0.045 C
ATOM     30  C   UNL     1      32.638  10.887  -3.828  1.00  0.00     0.017 C
ATOM     31  C   UNL     1      32.458  12.294  -3.325  1.00  0.00     0.025 C
BRANCH  31  32
ATOM     32  C   UNL     1      33.567  13.288  -3.188  1.00  0.00     0.164 C
BRANCH  32  33
ATOM     33  O   UNL     1      34.282  13.059  -1.965  1.00  0.00    -0.380 OA
BRANCH  33  34
ATOM     34  C   UNL     1      35.578  12.506  -2.158  1.00  0.00     0.169 C
ATOM     35  G   UNL     1      35.858  11.422  -1.115  1.00  0.00     0.000 C
ENDBRANCH  33  34
ENDBRANCH  32  33
ENDBRANCH  31  32
ENDBRANCH   7  29
TORSDOF 2
ENDMDL
MODEL 4
REMARK VINA RESULT:      -8.0      0.919      1.001
REMARK SMILES N#C[C@@H]1CCN(C(=O)[C@@H]2NC(=O)c3c[nH]c4ncc(nc34)[C@@H]3C[C@H]3COCC23CC3)C1
REMARK SMILES IDX 13 1 14 2 15 3 16 4 17 5 18 6 19 7 20 8 21 9 11 11 10 12
REMARK SMILES IDX 12 13 9 15 7 16 8 17 6 18 1 19 2 20 3 21 4 22 31 23 5 24
REMARK SMILES IDX 28 25 29 26 30 27 22 29 23 30 24 31 25 32 26 33 27 34
REMARK H PARENT 15 10 10 14
REMARK Flexibility Score:  106.900
ROOT
ATOM      1  C   UNL     1      33.364  13.619  -2.819  1.00  0.00     0.085 A
ATOM      2  C   UNL     1      34.698  13.927  -2.596  1.00  0.00     0.100 A
ATOM      3  N   UNL     1      35.409  12.744  -2.478  1.00  0.00    -0.344 N
ATOM      4  C   UNL     1      34.563  11.678  -2.627  1.00  0.00     0.156 A
ATOM      5  N   UNL     1      34.863  10.360  -2.618  1.00  0.00    -0.235 NA
ATOM      6  C   UNL     1      33.736   9.606  -2.841  1.00  0.00     0.137 A
ATOM      7  C   UNL     1      32.442  10.106  -3.026  1.00  0.00     0.063 A
ATOM      8  N   UNL     1      32.215  11.428  -2.976  1.00  0.00    -0.247 NA
ATOM      9  C   UNL     1      33.301  12.206  -2.804  1.00  0.00     0.120 A
ATOM     10  H   UNL     1      36.405  12.660  -2.333  1.00  0.00     0.168 HD
ENDROOT
BRANCH   1  11
ATOM     11  C   UNL     1      32.231  14.514  -3.055  1.00  0.00     0.255 C
ATOM     12  N   UNL     1      32.255  15.080  -4.307  1.00  0.00    -0.339 N
ATOM     13  O   UNL     1      31.368  14.749  -2.216  1.00  0.00    -0.269 OA
ATOM     14  H   UNL     1      33.106  14.938  -4.848  1.00  0.00     0.164 HD
BRANCH  12  15
ATOM     15  C   UNL     1      31.396  16.140  -4.787  1.00  0.00     0.180 C
BRANCH  15  16
ATOM     16  C   UNL     1      32.266  17.007  -5.736  1.00  0.00     0.245 C
ATOM     17  O   UNL     1      33.063  16.504  -6.532  1.00  0.00    -0.272 OA
BRANCH  16  18
ATOM     18  N   UNL     1      32.158  18.383  -5.628  1.00  0.00    -0.340 N
ATOM     19  N   UNL     1      34.515  21.582  -4.770  1.00  0.00    -0.198 NA
ATOM     20  C   UNL     1      33.542  21.203  -5.276  1.00  0.00     0.067 C
ATOM     21  C   UNL     1      32.311  20.733  -5.930  1.00  0.00     0.114 C
ATOM     22  C   UNL     1      31.216  20.417  -4.908  1.00  0.00     0.042 C
ATOM     23  C   UNL     1      32.536  19.386  -6.616  1.00  0.00     0.138 C
ATOM     24  C   UNL     1      31.530  18.992  -4.469  1.00  0.00     0.121 C
ENDBRANCH  16  18
ENDBRANCH  15  16
BRANCH  15  25
ATOM     25  C   UNL     1      30.130  15.570  -5.462  1.00  0.00     0.023 C
ATOM     26  C   UNL     1      28.812  16.237  -5.086  1.00  0.00     0.013 C
ATOM     27  C   UNL     1      29.393  16.464  -6.448  1.00  0.00     0.013 C
ATOM     28  G   UNL     1      30.063  14.065  -5.730  1.00  0.00     0.000 C
ENDBRANCH  15  25
ENDBRANCH  12  15
ENDBRANCH   1  11
BRANCH   7  29
ATOM     29  C   UNL     1      31.203   9.286  -3.281  1.00  0.00     0.045 C
ATOM     30  C   UNL     1      31.149   8.006  -4.067  1.00  0.00     0.017 C
ATOM     31  C   UNL     1      30.750   9.289  -4.748  1.00  0.00     0.025 C
BRANCH  31  32
ATOM     32  C   UNL     1      29.344   9.648  -5.108  1.00  0.00     0.164 C
BRANCH  32  33
ATOM     33  O   UNL     1      28.651   8.490  -5.591  1.00  0.00    -0.380 OA
BRANCH  33  34
ATOM     34  C   UNL     1      28.114   8.651  -6.899  1.00  0.00     0.169 C
ATOM     35  G   UNL     1      29.072   8.080  -7.945  1.00  0.00     0.000 C
ENDBRANCH  33  34
ENDBRANCH  32  33
ENDBRANCH  31  32
ENDBRANCH   7  29
TORSDOF 2
ENDMDL
MODEL 5
REMARK VINA RESULT:      -7.8      0.684      1.020
REMARK SMILES N#C[C@@H]1CCN(C(=O)[C@@H]2NC(=O)c3c[nH]c4ncc(nc34)[C@@H]3C[C@H]3COCC23CC3)C1
REMARK SMILES IDX 13 1 14 2 15 3 16 4 17 5 18 6 19 7 20 8 21 9 11 11 10 12
REMARK SMILES IDX 12 13 9 15 7 16 8 17 6 18 1 19 2 20 3 21 4 22 31 23 5 24
REMARK SMILES IDX 28 25 29 26 30 27 22 29 23 30 24 31 25 32 26 33 27 34
REMARK H PARENT 15 10 10 14
REMARK Flexibility Score:  106.900
ROOT
ATOM      1  C   UNL     1      33.628  13.134  -2.558  1.00  0.00     0.085 A
ATOM      2  C   UNL     1      34.984  13.343  -2.352  1.00  0.00     0.100 A
ATOM      3  N   UNL     1      35.619  12.112  -2.322  1.00  0.00    -0.344 N
ATOM      4  C   UNL     1      34.702  11.113  -2.510  1.00  0.00     0.156 A
ATOM      5  N   UNL     1      34.916   9.780  -2.586  1.00  0.00    -0.235 NA
ATOM      6  C   UNL     1      33.737   9.114  -2.823  1.00  0.00     0.137 A
ATOM      7  C   UNL     1      32.475   9.705  -2.945  1.00  0.00     0.063 A
ATOM      8  N   UNL     1      32.335  11.033  -2.812  1.00  0.00    -0.247 NA
ATOM      9  C   UNL     1      33.473  11.729  -2.624  1.00  0.00     0.120 A
ATOM     10  H   UNL     1      36.610  11.956  -2.207  1.00  0.00     0.168 HD
ENDROOT
BRANCH   1  11
ATOM     11  C   UNL     1      32.550  14.111  -2.712  1.00  0.00     0.255 C
ATOM     12  N   UNL     1      32.065  14.166  -3.997  1.00  0.00    -0.339 N
ATOM     13  O   UNL     1      32.143  14.820  -1.798  1.00  0.00    -0.269 OA
ATOM     14  H   UNL     1      32.594  13.652  -4.699  1.00  0.00     0.164 HD
BRANCH  12  15
ATOM     15  C   UNL     1      31.139  15.144  -4.523  1.00  0.00     0.180 C
BRANCH  15  16
ATOM     16  C   UNL     1      31.942  15.997  -5.541  1.00  0.00     0.245 C
ATOM     17  O   UNL     1      32.712  15.485  -6.358  1.00  0.00    -0.272 OA
BRANCH  16  18
ATOM     18  N   UNL     1      31.808  17.374  -5.474  1.00  0.00    -0.340 N
ATOM     19  N   UNL     1      34.170  20.679  -5.342  1.00  0.00    -0.198 NA
ATOM     20  C   UNL     1      33.122  20.247  -5.587  1.00  0.00     0.067 C
ATOM     21  C   UNL     1      31.792  19.707  -5.909  1.00  0.00     0.114 C
ATOM     22  C   UNL     1      30.980  19.415  -4.645  1.00  0.00     0.042 C
ATOM     23  C   UNL     1      31.904  18.333  -6.567  1.00  0.00     0.138 C
ATOM     24  C   UNL     1      31.444  18.025  -4.229  1.00  0.00     0.121 C
ENDBRANCH  16  18
ENDBRANCH  15  16
BRANCH  15  25
ATOM     25  C   UNL     1      29.897  14.463  -5.136  1.00  0.00     0.023 C
ATOM     26  C   UNL     1      29.961  12.945  -5.269  1.00  0.00     0.013 C
ATOM     27  C   UNL     1      29.069  13.559  -4.234  1.00  0.00     0.013 C
ATOM     28  G   UNL     1      29.135  15.197  -6.242  1.00  0.00     0.000 C
ENDBRANCH  15  25
ENDBRANCH  12  15
ENDBRANCH   1  11
BRANCH   7  29
ATOM     29  C   UNL     1      31.180   8.982  -3.215  1.00  0.00     0.045 C
ATOM     30  C   UNL     1      31.041   7.695  -3.979  1.00  0.00     0.017 C
ATOM     31  C   UNL     1      30.763   8.991  -4.692  1.00  0.00     0.025 C
BRANCH  31  32
ATOM     32  C   UNL     1      29.399   9.455  -5.093  1.00  0.00     0.164 C
BRANCH  32  33
ATOM     33  O   UNL     1      28.609   8.339  -5.524  1.00  0.00    -0.380 OA
BRANCH  33  34
ATOM     34  C   UNL     1      27.265   8.681  -5.844  1.00  0.00     0.169 C
ATOM     35  G   UNL     1      27.206   9.425  -7.179  1.00  0.00     0.000 C
ENDBRANCH  33  34
ENDBRANCH  32  33
ENDBRANCH  31  32
ENDBRANCH   7  29
TORSDOF 2
ENDMDL
MODEL 6
REMARK VINA RESULT:      -7.8      2.221      4.568
REMARK SMILES N#C[C@@H]1CCN(C(=O)[C@@H]2NC(=O)c3c[nH]c4ncc(nc34)[C@@H]3C[C@H]3COCC23CC3)C1
REMARK SMILES IDX 13 1 14 2 15 3 16 4 17 5 18 6 19 7 20 8 21 9 11 11 10 12
REMARK SMILES IDX 12 13 9 15 7 16 8 17 6 18 1 19 2 20 3 21 4 22 31 23 5 24
REMARK SMILES IDX 28 25 29 26 30 27 22 29 23 30 24 31 25 32 26 33 27 34
REMARK H PARENT 15 10 10 14
REMARK Flexibility Score:  106.900
ROOT
ATOM      1  C   UNL     1      28.879  11.388  -4.927  1.00  0.00     0.085 A
ATOM      2  C   UNL     1      27.808  10.975  -5.705  1.00  0.00     0.100 A
ATOM      3  N   UNL     1      27.947   9.621  -5.962  1.00  0.00    -0.344 N
ATOM      4  C   UNL     1      29.083   9.150  -5.360  1.00  0.00     0.156 A
ATOM      5  N   UNL     1      29.558   7.884  -5.336  1.00  0.00    -0.235 NA
ATOM      6  C   UNL     1      30.710   7.814  -4.589  1.00  0.00     0.137 A
ATOM      7  C   UNL     1      31.340   8.890  -3.956  1.00  0.00     0.063 A
ATOM      8  N   UNL     1      30.832  10.129  -4.064  1.00  0.00    -0.247 NA
ATOM      9  C   UNL     1      29.678  10.235  -4.750  1.00  0.00     0.120 A
ATOM     10  H   UNL     1      27.305   9.045  -6.488  1.00  0.00     0.168 HD
ENDROOT
BRANCH   1  11
ATOM     11  C   UNL     1      29.160  12.707  -4.359  1.00  0.00     0.255 C
ATOM     12  N   UNL     1      28.916  13.729  -5.244  1.00  0.00    -0.339 N
ATOM     13  O   UNL     1      29.590  12.876  -3.223  1.00  0.00    -0.269 OA
ATOM     14  H   UNL     1      28.722  13.454  -6.205  1.00  0.00     0.164 HD
BRANCH  12  15
ATOM     15  C   UNL     1      29.263  15.121  -5.065  1.00  0.00     0.180 C
BRANCH  15  16
ATOM     16  C   UNL     1      30.740  15.262  -5.519  1.00  0.00     0.245 C
ATOM     17  O   UNL     1      31.400  14.292  -5.904  1.00  0.00    -0.272 OA
BRANCH  16  18
ATOM     18  N   UNL     1      31.323  16.515  -5.432  1.00  0.00    -0.340 N
ATOM     19  N   UNL     1      30.194  20.394  -4.986  1.00  0.00    -0.198 NA
ATOM     20  C   UNL     1      31.045  19.614  -4.875  1.00  0.00     0.067 C
ATOM     21  C   UNL     1      32.129  18.631  -4.722  1.00  0.00     0.114 C
ATOM     22  C   UNL     1      32.756  18.269  -6.070  1.00  0.00     0.042 C
ATOM     23  C   UNL     1      31.587  17.292  -4.227  1.00  0.00     0.138 C
ATOM     24  C   UNL     1      31.842  17.178  -6.614  1.00  0.00     0.121 C
ENDBRANCH  16  18
ENDBRANCH  15  16
BRANCH  15  25
ATOM     25  C   UNL     1      28.292  16.041  -5.835  1.00  0.00     0.023 C
ATOM     26  C   UNL     1      26.908  16.219  -5.221  1.00  0.00     0.013 C
ATOM     27  C   UNL     1      27.887  17.352  -5.175  1.00  0.00     0.013 C
ATOM     28  G   UNL     1      28.348  16.042  -7.364  1.00  0.00     0.000 C
ENDBRANCH  15  25
ENDBRANCH  12  15
ENDBRANCH   1  11
BRANCH   7  29
ATOM     29  C   UNL     1      32.597   8.819  -3.128  1.00  0.00     0.045 C
ATOM     30  C   UNL     1      32.677   9.030  -1.642  1.00  0.00     0.017 C
ATOM     31  C   UNL     1      33.037  10.173  -2.554  1.00  0.00     0.025 C
BRANCH  31  32
ATOM     32  C   UNL     1      34.431  10.672  -2.768  1.00  0.00     0.164 C
BRANCH  32  33
ATOM     33  O   UNL     1      34.421  12.097  -2.933  1.00  0.00    -0.380 OA
BRANCH  33  34
ATOM     34  C   UNL     1      33.114  12.649  -3.044  1.00  0.00     0.169 C
ATOM     35  G   UNL     1      33.150  14.160  -2.811  1.00  0.00     0.000 C
ENDBRANCH  33  34
ENDBRANCH  32  33
ENDBRANCH  31  32
ENDBRANCH   7  29
TORSDOF 2
ENDMDL
MODEL 7
REMARK VINA RESULT:      -7.8      2.239      3.600
REMARK SMILES N#C[C@@H]1CCN(C(=O)[C@@H]2NC(=O)c3c[nH]c4ncc(nc34)[C@@H]3C[C@H]3COCC23CC3)C1
REMARK SMILES IDX 13 1 14 2 15 3 16 4 17 5 18 6 19 7 20 8 21 9 11 11 10 12
REMARK SMILES IDX 12 13 9 15 7 16 8 17 6 18 1 19 2 20 3 21 4 22 31 23 5 24
REMARK SMILES IDX 28 25 29 26 30 27 22 29 23 30 24 31 25 32 26 33 27 34
REMARK H PARENT 15 10 10 14
REMARK Flexibility Score:  106.900
ROOT
ATOM      1  C   UNL     1      34.161  12.630  -2.670  1.00  0.00     0.085 A
ATOM      2  C   UNL     1      35.443  12.604  -2.141  1.00  0.00     0.100 A
ATOM      3  N   UNL     1      35.741  11.301  -1.775  1.00  0.00    -0.344 N
ATOM      4  C   UNL     1      34.680  10.485  -2.063  1.00  0.00     0.156 A
ATOM      5  N   UNL     1      34.581   9.147  -1.896  1.00  0.00    -0.235 NA
ATOM      6  C   UNL     1      33.364   8.693  -2.345  1.00  0.00     0.137 A
ATOM      7  C   UNL     1      32.342   9.486  -2.879  1.00  0.00     0.063 A
ATOM      8  N   UNL     1      32.498  10.816  -2.972  1.00  0.00    -0.247 NA
ATOM      9  C   UNL     1      33.695  11.298  -2.583  1.00  0.00     0.120 A
ATOM     10  H   UNL     1      36.613  10.979  -1.380  1.00  0.00     0.168 HD
ENDROOT
BRANCH   1  11
ATOM     11  C   UNL     1      33.414  13.752  -3.239  1.00  0.00     0.255 C
ATOM     12  N   UNL     1      32.061  13.513  -3.296  1.00  0.00    -0.339 N
ATOM     13  O   UNL     1      33.942  14.783  -3.641  1.00  0.00    -0.269 OA
ATOM     14  H   UNL     1      31.765  12.561  -3.088  1.00  0.00     0.164 HD
BRANCH  12  15
ATOM     15  C   UNL     1      31.074  14.329  -3.965  1.00  0.00     0.180 C
BRANCH  15  16
ATOM     16  C   UNL     1      29.802  13.449  -4.098  1.00  0.00     0.245 C
ATOM     17  O   UNL     1      29.553  12.539  -3.303  1.00  0.00    -0.272 OA
BRANCH  16  18
ATOM     18  N   UNL     1      28.968  13.683  -5.179  1.00  0.00    -0.340 N
ATOM     19  N   UNL     1      26.383  16.531  -6.492  1.00  0.00    -0.198 NA
ATOM     20  C   UNL     1      27.064  15.637  -6.776  1.00  0.00     0.067 C
ATOM     21  C   UNL     1      27.934  14.510  -7.149  1.00  0.00     0.114 C
ATOM     22  C   UNL     1      27.309  13.166  -6.766  1.00  0.00     0.042 C
ATOM     23  C   UNL     1      29.229  14.527  -6.338  1.00  0.00     0.138 C
ATOM     24  C   UNL     1      27.701  12.987  -5.305  1.00  0.00     0.121 C
ENDBRANCH  16  18
ENDBRANCH  15  16
BRANCH  15  25
ATOM     25  C   UNL     1      30.831  15.649  -3.203  1.00  0.00     0.023 C
ATOM     26  C   UNL     1      31.355  16.915  -3.871  1.00  0.00     0.013 C
ATOM     27  C   UNL     1      29.880  16.660  -3.826  1.00  0.00     0.013 C
ATOM     28  G   UNL     1      30.891  15.629  -1.674  1.00  0.00     0.000 C
ENDBRANCH  15  25
ENDBRANCH  12  15
ENDBRANCH   1  11
BRANCH   7  29
ATOM     29  C   UNL     1      31.010   8.993  -3.383  1.00  0.00     0.045 C
ATOM     30  C   UNL     1      30.800   7.805  -4.279  1.00  0.00     0.017 C
ATOM     31  C   UNL     1      30.814   9.179  -4.895  1.00  0.00     0.025 C
BRANCH  31  32
ATOM     32  C   UNL     1      29.601   9.876  -5.423  1.00  0.00     0.164 C
BRANCH  32  33
ATOM     33  O   UNL     1      28.438   9.455  -4.698  1.00  0.00    -0.380 OA
BRANCH  33  34
ATOM     34  C   UNL     1      27.344   9.096  -5.534  1.00  0.00     0.169 C
ATOM     35  G   UNL     1      27.772   9.090  -7.002  1.00  0.00     0.000 C
ENDBRANCH  33  34
ENDBRANCH  32  33
ENDBRANCH  31  32
ENDBRANCH   7  29
TORSDOF 2
ENDMDL
MODEL 8
REMARK VINA RESULT:      -7.8      1.890      3.925
REMARK SMILES N#C[C@@H]1CCN(C(=O)[C@@H]2NC(=O)c3c[nH]c4ncc(nc34)[C@@H]3C[C@H]3COCC23CC3)C1
REMARK SMILES IDX 13 1 14 2 15 3 16 4 17 5 18 6 19 7 20 8 21 9 11 11 10 12
REMARK SMILES IDX 12 13 9 15 7 16 8 17 6 18 1 19 2 20 3 21 4 22 31 23 5 24
REMARK SMILES IDX 28 25 29 26 30 27 22 29 23 30 24 31 25 32 26 33 27 34
REMARK H PARENT 15 10 10 14
REMARK Flexibility Score:  106.900
ROOT
ATOM      1  C   UNL     1      33.335  12.974  -3.772  1.00  0.00     0.085 A
ATOM      2  C   UNL     1      34.513  13.372  -3.156  1.00  0.00     0.100 A
ATOM      3  N   UNL     1      34.956  12.341  -2.345  1.00  0.00    -0.344 N
ATOM      4  C   UNL     1      34.092  11.281  -2.428  1.00  0.00     0.156 A
ATOM      5  N   UNL     1      34.182  10.075  -1.826  1.00  0.00    -0.235 NA
ATOM      6  C   UNL     1      33.133   9.269  -2.198  1.00  0.00     0.137 A
ATOM      7  C   UNL     1      32.088   9.631  -3.056  1.00  0.00     0.063 A
ATOM      8  N   UNL     1      32.043  10.866  -3.581  1.00  0.00    -0.247 NA
ATOM      9  C   UNL     1      33.078  11.674  -3.277  1.00  0.00     0.120 A
ATOM     10  H   UNL     1      35.800  12.340  -1.789  1.00  0.00     0.168 HD
ENDROOT
BRANCH   1  11
ATOM     11  C   UNL     1      32.511  13.684  -4.750  1.00  0.00     0.255 C
ATOM     12  N   UNL     1      32.491  15.042  -4.540  1.00  0.00    -0.339 N
ATOM     13  O   UNL     1      31.888  13.123  -5.645  1.00  0.00    -0.269 OA
ATOM     14  H   UNL     1      32.910  15.368  -3.670  1.00  0.00     0.164 HD
BRANCH  12  15
ATOM     15  C   UNL     1      31.637  16.001  -5.203  1.00  0.00     0.180 C
BRANCH  15  16
ATOM     16  C   UNL     1      30.350  16.106  -4.341  1.00  0.00     0.245 C
ATOM     17  O   UNL     1      30.390  16.116  -3.108  1.00  0.00    -0.272 OA
BRANCH  16  18
ATOM     18  N   UNL     1      29.134  16.134  -5.003  1.00  0.00    -0.340 N
ATOM     19  N   UNL     1      25.470  14.393  -4.754  1.00  0.00    -0.198 NA
ATOM     20  C   UNL     1      26.091  15.292  -5.144  1.00  0.00     0.067 C
ATOM     21  C   UNL     1      26.867  16.441  -5.636  1.00  0.00     0.114 C
ATOM     22  C   UNL     1      27.699  16.075  -6.867  1.00  0.00     0.042 C
ATOM     23  C   UNL     1      27.929  16.858  -4.619  1.00  0.00     0.138 C
ATOM     24  C   UNL     1      28.967  15.467  -6.281  1.00  0.00     0.121 C
ENDBRANCH  16  18
ENDBRANCH  15  16
BRANCH  15  25
ATOM     25  C   UNL     1      32.359  17.352  -5.396  1.00  0.00     0.023 C
ATOM     26  C   UNL     1      31.676  18.351  -6.323  1.00  0.00     0.013 C
ATOM     27  C   UNL     1      31.682  18.599  -4.846  1.00  0.00     0.013 C
ATOM     28  G   UNL     1      33.889  17.364  -5.414  1.00  0.00     0.000 C
ENDBRANCH  15  25
ENDBRANCH  12  15
ENDBRANCH   1  11
BRANCH   7  29
ATOM     29  C   UNL     1      30.940   8.750  -3.476  1.00  0.00     0.045 C
ATOM     30  C   UNL     1      31.024   7.614  -4.457  1.00  0.00     0.017 C
ATOM     31  C   UNL     1      30.512   8.946  -4.937  1.00  0.00     0.025 C
BRANCH  31  32
ATOM     32  C   UNL     1      29.083   9.225  -5.279  1.00  0.00     0.164 C
BRANCH  32  33
ATOM     33  O   UNL     1      28.573  10.269  -4.439  1.00  0.00    -0.380 OA
BRANCH  33  34
ATOM     34  C   UNL     1      28.647  11.562  -5.027  1.00  0.00     0.169 C
ATOM     35  G   UNL     1      28.989  12.613  -3.969  1.00  0.00     0.000 C
ENDBRANCH  33  34
ENDBRANCH  32  33
ENDBRANCH  31  32
ENDBRANCH   7  29
TORSDOF 2
ENDMDL
MODEL 9
REMARK VINA RESULT:      -7.8      2.254      3.980
REMARK SMILES N#C[C@@H]1CCN(C(=O)[C@@H]2NC(=O)c3c[nH]c4ncc(nc34)[C@@H]3C[C@H]3COCC23CC3)C1
REMARK SMILES IDX 13 1 14 2 15 3 16 4 17 5 18 6 19 7 20 8 21 9 11 11 10 12
REMARK SMILES IDX 12 13 9 15 7 16 8 17 6 18 1 19 2 20 3 21 4 22 31 23 5 24
REMARK SMILES IDX 28 25 29 26 30 27 22 29 23 30 24 31 25 32 26 33 27 34
REMARK H PARENT 15 10 10 14
REMARK Flexibility Score:  106.900
ROOT
ATOM      1  C   UNL     1      34.111  12.612  -2.726  1.00  0.00     0.085 A
ATOM      2  C   UNL     1      35.386  12.582  -2.179  1.00  0.00     0.100 A
ATOM      3  N   UNL     1      35.670  11.281  -1.797  1.00  0.00    -0.344 N
ATOM      4  C   UNL     1      34.608  10.469  -2.092  1.00  0.00     0.156 A
ATOM      5  N   UNL     1      34.497   9.134  -1.915  1.00  0.00    -0.235 NA
ATOM      6  C   UNL     1      33.284   8.683  -2.377  1.00  0.00     0.137 A
ATOM      7  C   UNL     1      32.274   9.478  -2.932  1.00  0.00     0.063 A
ATOM      8  N   UNL     1      32.440  10.806  -3.034  1.00  0.00    -0.247 NA
ATOM      9  C   UNL     1      33.635  11.284  -2.633  1.00  0.00     0.120 A
ATOM     10  H   UNL     1      36.534  10.956  -1.387  1.00  0.00     0.168 HD
ENDROOT
BRANCH   1  11
ATOM     11  C   UNL     1      33.379  13.734  -3.314  1.00  0.00     0.255 C
ATOM     12  N   UNL     1      32.017  13.545  -3.298  1.00  0.00    -0.339 N
ATOM     13  O   UNL     1      33.925  14.723  -3.792  1.00  0.00    -0.269 OA
ATOM     14  H   UNL     1      31.696  12.617  -3.029  1.00  0.00     0.164 HD
BRANCH  12  15
ATOM     15  C   UNL     1      31.029  14.366  -3.960  1.00  0.00     0.180 C
BRANCH  15  16
ATOM     16  C   UNL     1      29.745  13.500  -4.066  1.00  0.00     0.245 C
ATOM     17  O   UNL     1      29.524  12.565  -3.291  1.00  0.00    -0.272 OA
BRANCH  16  18
ATOM     18  N   UNL     1      28.867  13.775  -5.100  1.00  0.00    -0.340 N
ATOM     19  N   UNL     1      26.700  11.772  -7.894  1.00  0.00    -0.198 NA
ATOM     20  C   UNL     1      26.825  12.750  -7.284  1.00  0.00     0.067 C
ATOM     21  C   UNL     1      26.969  13.992  -6.509  1.00  0.00     0.114 C
ATOM     22  C   UNL     1      28.109  14.862  -7.045  1.00  0.00     0.042 C
ATOM     23  C   UNL     1      27.412  13.695  -5.077  1.00  0.00     0.138 C
ATOM     24  C   UNL     1      29.349  14.293  -6.367  1.00  0.00     0.121 C
ENDBRANCH  16  18
ENDBRANCH  15  16
BRANCH  15  25
ATOM     25  C   UNL     1      30.813  15.696  -3.208  1.00  0.00     0.023 C
ATOM     26  C   UNL     1      31.323  16.952  -3.906  1.00  0.00     0.013 C
ATOM     27  C   UNL     1      29.849  16.704  -3.817  1.00  0.00     0.013 C
ATOM     28  G   UNL     1      30.916  15.694  -1.681  1.00  0.00     0.000 C
ENDBRANCH  15  25
ENDBRANCH  12  15
ENDBRANCH   1  11
BRANCH   7  29
ATOM     29  C   UNL     1      30.946   8.990  -3.450  1.00  0.00     0.045 C
ATOM     30  C   UNL     1      30.750   7.874  -4.438  1.00  0.00     0.017 C
ATOM     31  C   UNL     1      30.712   9.294  -4.936  1.00  0.00     0.025 C
BRANCH  31  32
ATOM     32  C   UNL     1      29.469   9.997  -5.381  1.00  0.00     0.164 C
BRANCH  32  33
ATOM     33  O   UNL     1      28.693   9.134  -6.224  1.00  0.00    -0.380 OA
BRANCH  33  34
ATOM     34  C   UNL     1      27.392   8.861  -5.716  1.00  0.00     0.169 C
ATOM     35  G   UNL     1      27.128   7.354  -5.704  1.00  0.00     0.000 C
ENDBRANCH  33  34
ENDBRANCH  32  33
ENDBRANCH  31  32
ENDBRANCH   7  29
TORSDOF 2
ENDMDL
