MODEL 1
REMARK VINA RESULT:      -8.3      0.000      0.000
REMARK SMILES N#C[C@H]1C[C@@H]2CCCC3(CC3)c3cnc4[nH]cc(c4n3)C(=O)N[C@H](C3CC3)C(=O)N2C1
REMARK SMILES IDX 24 1 28 2 29 3 30 4 1 5 2 6 3 7 4 8 31 9 5 10 6 11 7 12
REMARK SMILES IDX 23 14 21 15 22 16 18 18 17 19 19 20 16 21 20 22 15 23 12 24
REMARK SMILES IDX 14 25 13 26 9 28 10 29 11 30 8 31 25 33 26 34 27 35
REMARK H PARENT 23 17 16 27
REMARK Flexibility Score:   67.900
ROOT
ATOM      1  C   UNL     1      30.224  15.932  -5.223  1.00  0.00     0.175 C
ENDROOT
BRANCH   1   2
ATOM      2  C   UNL     1      30.910  17.111  -5.994  1.00  0.00     0.245 C
ATOM      3  O   UNL     1      31.554  16.876  -7.022  1.00  0.00    -0.272 OA
BRANCH   2   4
ATOM      4  N   UNL     1      30.847  18.407  -5.488  1.00  0.00    -0.337 N
ATOM      5  N   UNL     1      34.105  20.719  -5.935  1.00  0.00    -0.198 NA
ATOM      6  C   UNL     1      33.110  20.561  -5.360  1.00  0.00     0.067 C
ATOM      7  C   UNL     1      31.852  20.379  -4.618  1.00  0.00     0.114 C
ATOM      8  C   UNL     1      30.639  20.779  -5.453  1.00  0.00     0.045 C
ATOM      9  C   UNL     1      31.589  18.902  -4.328  1.00  0.00     0.138 C
ATOM     10  C   UNL     1      30.333  19.529  -6.294  1.00  0.00     0.086 C
BRANCH  10  11
ATOM     11  C   UNL     1      28.856  19.453  -6.760  1.00  0.00     0.025 C
BRANCH  11  12
ATOM     12  C   UNL     1      28.213  20.685  -7.438  1.00  0.00     0.003 C
ATOM     13  G   UNL     1      26.926  21.093  -6.748  1.00  0.00     0.000 C
ENDBRANCH  11  12
ENDBRANCH  10  11
ENDBRANCH   2   4
ENDBRANCH   1   2
BRANCH   1  14
ATOM     14  N   UNL     1      31.224  15.114  -4.550  1.00  0.00    -0.340 N
ATOM     15  C   UNL     1      31.696  15.339  -3.273  1.00  0.00     0.255 C
ATOM     16  O   UNL     1      31.151  16.074  -2.459  1.00  0.00    -0.269 OA
ATOM     17  H   UNL     1      31.814  14.544  -5.152  1.00  0.00     0.164 HD
BRANCH  15  18
ATOM     18  C   UNL     1      32.939  14.631  -2.972  1.00  0.00     0.085 A
ATOM     19  C   UNL     1      34.176  15.183  -2.664  1.00  0.00     0.100 A
ATOM     20  C   UNL     1      33.146  13.231  -2.984  1.00  0.00     0.120 A
ATOM     21  N   UNL     1      35.087  14.161  -2.493  1.00  0.00    -0.344 N
ATOM     22  N   UNL     1      32.257  12.252  -3.247  1.00  0.00    -0.246 NA
ATOM     23  C   UNL     1      34.469  12.957  -2.700  1.00  0.00     0.156 A
ATOM     24  C   UNL     1      32.740  10.987  -3.250  1.00  0.00     0.066 A
ATOM     25  N   UNL     1      35.023  11.728  -2.655  1.00  0.00    -0.235 NA
ATOM     26  C   UNL     1      34.093  10.767  -2.953  1.00  0.00     0.138 A
ATOM     27  H   UNL     1      36.068  14.264  -2.275  1.00  0.00     0.168 HD
BRANCH  24  28
ATOM     28  C   UNL     1      31.697   9.896  -3.600  1.00  0.00     0.014 C
ATOM     29  C   UNL     1      32.100   8.436  -3.502  1.00  0.00     0.014 C
ATOM     30  C   UNL     1      31.124   9.008  -2.511  1.00  0.00     0.014 C
BRANCH  28  31
ATOM     31  C   UNL     1      30.804  10.348  -4.762  1.00  0.00     0.013 C
ATOM     32  G   UNL     1      29.299  10.433  -4.603  1.00  0.00     0.000 C
ENDBRANCH  28  31
ENDBRANCH  24  28
ENDBRANCH  15  18
ENDBRANCH   1  14
BRANCH   1  33
ATOM     33  C   UNL     1      29.305  15.107  -6.092  1.00  0.00     0.021 C
ATOM     34  C   UNL     1      27.952  15.633  -6.514  1.00  0.00     0.006 C
ATOM     35  C   UNL     1      28.038  14.519  -5.513  1.00  0.00     0.006 C
ENDBRANCH   1  33
TORSDOF 1
ENDMDL
MODEL 2
REMARK VINA RESULT:      -8.2      2.314      4.004
REMARK SMILES N#C[C@H]1C[C@@H]2CCCC3(CC3)c3cnc4[nH]cc(c4n3)C(=O)N[C@H](C3CC3)C(=O)N2C1
REMARK SMILES IDX 24 1 28 2 29 3 30 4 1 5 2 6 3 7 4 8 31 9 5 10 6 11 7 12
REMARK SMILES IDX 23 14 21 15 22 16 18 18 17 19 19 20 16 21 20 22 15 23 12 24
REMARK SMILES IDX 14 25 13 26 9 28 10 29 11 30 8 31 25 33 26 34 27 35
REMARK H PARENT 23 17 16 27
REMARK Flexibility Score:   67.900
ROOT
ATOM      1  C   UNL     1      32.466  14.915  -3.517  1.00  0.00     0.175 C
ENDROOT
BRANCH   1   2
ATOM      2  C   UNL     1      32.119  14.780  -5.038  1.00  0.00     0.245 C
ATOM      3  O   UNL     1      32.372  13.726  -5.632  1.00  0.00    -0.272 OA
BRANCH   2   4
ATOM      4  N   UNL     1      31.588  15.864  -5.733  1.00  0.00    -0.337 N
ATOM      5  N   UNL     1      28.255  17.551  -4.251  1.00  0.00    -0.198 NA
ATOM      6  C   UNL     1      28.936  17.425  -5.181  1.00  0.00     0.067 C
ATOM      7  C   UNL     1      29.786  17.278  -6.373  1.00  0.00     0.114 C
ATOM      8  C   UNL     1      31.054  18.122  -6.272  1.00  0.00     0.045 C
ATOM      9  C   UNL     1      30.336  15.857  -6.489  1.00  0.00     0.138 C
ATOM     10  C   UNL     1      32.024  17.247  -5.463  1.00  0.00     0.086 C
BRANCH  10  11
ATOM     11  C   UNL     1      33.515  17.586  -5.722  1.00  0.00     0.025 C
BRANCH  11  12
ATOM     12  C   UNL     1      33.904  18.341  -7.015  1.00  0.00     0.003 C
ATOM     13  G   UNL     1      34.212  19.799  -6.737  1.00  0.00     0.000 C
ENDBRANCH  11  12
ENDBRANCH  10  11
ENDBRANCH   2   4
ENDBRANCH   1   2
BRANCH   1  14
ATOM     14  N   UNL     1      32.740  13.606  -2.939  1.00  0.00    -0.340 N
ATOM     15  C   UNL     1      33.999  13.067  -2.771  1.00  0.00     0.255 C
ATOM     16  O   UNL     1      35.037  13.714  -2.832  1.00  0.00    -0.269 OA
ATOM     17  H   UNL     1      31.966  12.945  -2.943  1.00  0.00     0.164 HD
BRANCH  15  18
ATOM     18  C   UNL     1      33.993  11.624  -2.531  1.00  0.00     0.085 A
ATOM     19  C   UNL     1      34.944  10.876  -1.848  1.00  0.00     0.100 A
ATOM     20  C   UNL     1      33.038  10.688  -2.993  1.00  0.00     0.120 A
ATOM     21  N   UNL     1      34.575   9.546  -1.893  1.00  0.00    -0.344 N
ATOM     22  N   UNL     1      31.928  10.911  -3.724  1.00  0.00    -0.246 NA
ATOM     23  C   UNL     1      33.413   9.416  -2.605  1.00  0.00     0.156 A
ATOM     24  C   UNL     1      31.217   9.817  -4.085  1.00  0.00     0.066 A
ATOM     25  N   UNL     1      32.748   8.280  -2.897  1.00  0.00    -0.235 NA
ATOM     26  C   UNL     1      31.643   8.549  -3.661  1.00  0.00     0.138 A
ATOM     27  H   UNL     1      35.083   8.771  -1.492  1.00  0.00     0.168 HD
BRANCH  24  28
ATOM     28  C   UNL     1      29.973  10.112  -4.960  1.00  0.00     0.014 C
ATOM     29  C   UNL     1      29.593   9.129  -6.053  1.00  0.00     0.014 C
ATOM     30  C   UNL     1      28.726   9.257  -4.831  1.00  0.00     0.014 C
BRANCH  28  31
ATOM     31  C   UNL     1      29.840  11.615  -5.230  1.00  0.00     0.013 C
ATOM     32  G   UNL     1      28.599  12.378  -4.810  1.00  0.00     0.000 C
ENDBRANCH  28  31
ENDBRANCH  24  28
ENDBRANCH  15  18
ENDBRANCH   1  14
BRANCH   1  33
ATOM     33  C   UNL     1      31.424  15.677  -2.733  1.00  0.00     0.021 C
ATOM     34  C   UNL     1      31.113  15.320  -1.297  1.00  0.00     0.006 C
ATOM     35  C   UNL     1      30.112  15.016  -2.372  1.00  0.00     0.006 C
ENDBRANCH   1  33
TORSDOF 1
ENDMDL
MODEL 3
REMARK VINA RESULT:      -8.0      1.960      9.176
REMARK SMILES N#C[C@H]1C[C@@H]2CCCC3(CC3)c3cnc4[nH]cc(c4n3)C(=O)N[C@H](C3CC3)C(=O)N2C1
REMARK SMILES IDX 24 1 28 2 29 3 30 4 1 5 2 6 3 7 4 8 31 9 5 10 6 11 7 12
REMARK SMILES IDX 23 14 21 15 22 16 18 18 17 19 19 20 16 21 20 22 15 23 12 24
REMARK SMILES IDX 14 25 13 26 9 28 10 29 11 30 8 31 25 33 26 34 27 35
REMARK H PARENT 23 17 16 27
REMARK Flexibility Score:   67.900
ROOT
ATOM      1  C   UNL     1      32.039  13.934  -3.918  1.00  0.00     0.175 C
ENDROOT
BRANCH   1   2
ATOM      2  C   UNL     1      31.732  12.672  -4.795  1.00  0.00     0.245 C
ATOM      3  O   UNL     1      31.980  12.695  -6.006  1.00  0.00    -0.272 OA
BRANCH   2   4
ATOM      4  N   UNL     1      31.125  11.556  -4.226  1.00  0.00    -0.337 N
ATOM      5  N   UNL     1      29.462   8.886  -6.729  1.00  0.00    -0.198 NA
ATOM      6  C   UNL     1      29.509   9.282  -5.640  1.00  0.00     0.067 C
ATOM      7  C   UNL     1      29.555   9.770  -4.252  1.00  0.00     0.114 C
ATOM      8  C   UNL     1      30.813   9.300  -3.527  1.00  0.00     0.045 C
ATOM      9  C   UNL     1      29.686  11.291  -4.204  1.00  0.00     0.138 C
ATOM     10  C   UNL     1      31.884  10.327  -3.931  1.00  0.00     0.086 C
BRANCH  10  11
ATOM     11  C   UNL     1      33.044  10.435  -2.907  1.00  0.00     0.025 C
BRANCH  11  12
ATOM     12  C   UNL     1      33.750   9.146  -2.427  1.00  0.00     0.003 C
ATOM     13  G   UNL     1      34.822   9.448  -1.398  1.00  0.00     0.000 C
ENDBRANCH  11  12
ENDBRANCH  10  11
ENDBRANCH   2   4
ENDBRANCH   1   2
BRANCH   1  14
ATOM     14  N   UNL     1      31.275  15.081  -4.391  1.00  0.00    -0.340 N
ATOM     15  C   UNL     1      30.516  15.907  -3.588  1.00  0.00     0.255 C
ATOM     16  O   UNL     1      30.603  15.947  -2.367  1.00  0.00    -0.269 OA
ATOM     17  H   UNL     1      31.048  15.088  -5.383  1.00  0.00     0.164 HD
BRANCH  15  18
ATOM     18  C   UNL     1      29.563  16.733  -4.328  1.00  0.00     0.085 A
ATOM     19  C   UNL     1      28.270  16.399  -4.709  1.00  0.00     0.100 A
ATOM     20  C   UNL     1      29.787  18.028  -4.852  1.00  0.00     0.120 A
ATOM     21  N   UNL     1      27.736  17.450  -5.428  1.00  0.00    -0.344 N
ATOM     22  N   UNL     1      30.897  18.788  -4.770  1.00  0.00    -0.246 NA
ATOM     23  C   UNL     1      28.662  18.451  -5.533  1.00  0.00     0.156 A
ATOM     24  C   UNL     1      30.862  19.975  -5.420  1.00  0.00     0.066 A
ATOM     25  N   UNL     1      28.535  19.627  -6.182  1.00  0.00    -0.235 NA
ATOM     26  C   UNL     1      29.692  20.355  -6.095  1.00  0.00     0.138 A
ATOM     27  H   UNL     1      26.815  17.484  -5.842  1.00  0.00     0.168 HD
BRANCH  24  28
ATOM     28  C   UNL     1      32.172  20.799  -5.338  1.00  0.00     0.014 C
ATOM     29  C   UNL     1      32.221  22.170  -5.988  1.00  0.00     0.014 C
ATOM     30  C   UNL     1      32.235  22.054  -4.489  1.00  0.00     0.014 C
BRANCH  28  31
ATOM     31  C   UNL     1      33.398  19.883  -5.436  1.00  0.00     0.013 C
ATOM     32  G   UNL     1      33.895  19.383  -6.778  1.00  0.00     0.000 C
ENDBRANCH  28  31
ENDBRANCH  24  28
ENDBRANCH  15  18
ENDBRANCH   1  14
BRANCH   1  33
ATOM     33  C   UNL     1      33.514  14.238  -3.808  1.00  0.00     0.021 C
ATOM     34  C   UNL     1      34.336  13.702  -2.658  1.00  0.00     0.006 C
ATOM     35  C   UNL     1      34.018  15.166  -2.725  1.00  0.00     0.006 C
ENDBRANCH   1  33
TORSDOF 1
ENDMDL
MODEL 4
REMARK VINA RESULT:      -8.0      2.092      4.310
REMARK SMILES N#C[C@H]1C[C@@H]2CCCC3(CC3)c3cnc4[nH]cc(c4n3)C(=O)N[C@H](C3CC3)C(=O)N2C1
REMARK SMILES IDX 24 1 28 2 29 3 30 4 1 5 2 6 3 7 4 8 31 9 5 10 6 11 7 12
REMARK SMILES IDX 23 14 21 15 22 16 18 18 17 19 19 20 16 21 20 22 15 23 12 24
REMARK SMILES IDX 14 25 13 26 9 28 10 29 11 30 8 31 25 33 26 34 27 35
REMARK H PARENT 23 17 16 27
REMARK Flexibility Score:   67.900
ROOT
ATOM      1  C   UNL     1      31.615  15.656  -4.695  1.00  0.00     0.175 C
ENDROOT
BRANCH   1   2
ATOM      2  C   UNL     1      30.276  16.033  -3.975  1.00  0.00     0.245 C
ATOM      3  O   UNL     1      30.187  15.912  -2.748  1.00  0.00    -0.272 OA
BRANCH   2   4
ATOM      4  N   UNL     1      29.172  16.440  -4.719  1.00  0.00    -0.337 N
ATOM      5  N   UNL     1      29.447  19.952  -6.655  1.00  0.00    -0.198 NA
ATOM      6  C   UNL     1      28.734  19.135  -6.243  1.00  0.00     0.067 C
ATOM      7  C   UNL     1      27.812  18.110  -5.729  1.00  0.00     0.114 C
ATOM      8  C   UNL     1      27.795  16.868  -6.615  1.00  0.00     0.045 C
ATOM      9  C   UNL     1      28.289  17.560  -4.386  1.00  0.00     0.138 C
ATOM     10  C   UNL     1      28.997  16.042  -6.127  1.00  0.00     0.086 C
BRANCH  10  11
ATOM     11  C   UNL     1      28.859  14.527  -6.427  1.00  0.00     0.025 C
BRANCH  11  12
ATOM     12  C   UNL     1      28.196  13.607  -5.375  1.00  0.00     0.003 C
ATOM     13  G   UNL     1      26.723  13.925  -5.207  1.00  0.00     0.000 C
ENDBRANCH  11  12
ENDBRANCH  10  11
ENDBRANCH   2   4
ENDBRANCH   1   2
BRANCH   1  14
ATOM     14  N   UNL     1      32.132  14.395  -4.182  1.00  0.00    -0.340 N
ATOM     15  C   UNL     1      32.293  13.247  -4.929  1.00  0.00     0.255 C
ATOM     16  O   UNL     1      32.280  13.217  -6.154  1.00  0.00    -0.269 OA
ATOM     17  H   UNL     1      32.084  14.270  -3.173  1.00  0.00     0.164 HD
BRANCH  15  18
ATOM     18  C   UNL     1      32.462  12.039  -4.123  1.00  0.00     0.085 A
ATOM     19  C   UNL     1      33.443  11.786  -3.172  1.00  0.00     0.100 A
ATOM     20  C   UNL     1      31.686  10.857  -4.186  1.00  0.00     0.120 A
ATOM     21  N   UNL     1      33.263  10.509  -2.680  1.00  0.00    -0.344 N
ATOM     22  N   UNL     1      30.623  10.591  -4.970  1.00  0.00    -0.246 NA
ATOM     23  C   UNL     1      32.194   9.923  -3.304  1.00  0.00     0.156 A
ATOM     24  C   UNL     1      30.100   9.346  -4.871  1.00  0.00     0.066 A
ATOM     25  N   UNL     1      31.717   8.675  -3.124  1.00  0.00    -0.235 NA
ATOM     26  C   UNL     1      30.656   8.438  -3.957  1.00  0.00     0.138 A
ATOM     27  H   UNL     1      33.835  10.049  -1.986  1.00  0.00     0.168 HD
BRANCH  24  28
ATOM     28  C   UNL     1      28.907   9.066  -5.819  1.00  0.00     0.014 C
ATOM     29  C   UNL     1      27.496   9.114  -5.261  1.00  0.00     0.014 C
ATOM     30  C   UNL     1      27.960  10.185  -6.210  1.00  0.00     0.014 C
BRANCH  28  31
ATOM     31  C   UNL     1      29.268   7.982  -6.842  1.00  0.00     0.013 C
ATOM     32  G   UNL     1      29.156   8.245  -8.331  1.00  0.00     0.000 C
ENDBRANCH  28  31
ENDBRANCH  24  28
ENDBRANCH  15  18
ENDBRANCH   1  14
BRANCH   1  33
ATOM     33  C   UNL     1      32.647  16.757  -4.648  1.00  0.00     0.021 C
ATOM     34  C   UNL     1      32.328  18.147  -5.150  1.00  0.00     0.006 C
ATOM     35  C   UNL     1      33.266  17.273  -5.927  1.00  0.00     0.006 C
ENDBRANCH   1  33
TORSDOF 1
ENDMDL
MODEL 5
REMARK VINA RESULT:      -7.9      2.368      5.118
REMARK SMILES N#C[C@H]1C[C@@H]2CCCC3(CC3)c3cnc4[nH]cc(c4n3)C(=O)N[C@H](C3CC3)C(=O)N2C1
REMARK SMILES IDX 24 1 28 2 29 3 30 4 1 5 2 6 3 7 4 8 31 9 5 10 6 11 7 12
REMARK SMILES IDX 23 14 21 15 22 16 18 18 17 19 19 20 16 21 20 22 15 23 12 24
REMARK SMILES IDX 14 25 13 26 9 28 10 29 11 30 8 31 25 33 26 34 27 35
REMARK H PARENT 23 17 16 27
REMARK Flexibility Score:   67.900
ROOT
ATOM      1  C   UNL     1      31.072  14.293  -5.559  1.00  0.00     0.175 C
ENDROOT
BRANCH   1   2
ATOM      2  C   UNL     1      29.841  14.789  -4.727  1.00  0.00     0.245 C
ATOM      3  O   UNL     1      29.784  14.546  -3.516  1.00  0.00    -0.272 OA
BRANCH   2   4
ATOM      4  N   UNL     1      28.787  15.443  -5.359  1.00  0.00    -0.337 N
ATOM      5  N   UNL     1      25.060  14.468  -4.213  1.00  0.00    -0.198 NA
ATOM      6  C   UNL     1      25.715  14.956  -5.036  1.00  0.00     0.067 C
ATOM      7  C   UNL     1      26.528  15.578  -6.093  1.00  0.00     0.114 C
ATOM      8  C   UNL     1      26.996  16.977  -5.698  1.00  0.00     0.045 C
ATOM      9  C   UNL     1      27.844  14.828  -6.293  1.00  0.00     0.138 C
ATOM     10  C   UNL     1      28.261  16.727  -4.860  1.00  0.00     0.086 C
BRANCH  10  11
ATOM     11  C   UNL     1      29.232  17.936  -4.845  1.00  0.00     0.025 C
BRANCH  11  12
ATOM     12  C   UNL     1      29.525  18.685  -6.166  1.00  0.00     0.003 C
ATOM     13  G   UNL     1      30.684  19.652  -6.012  1.00  0.00     0.000 C
ENDBRANCH  11  12
ENDBRANCH  10  11
ENDBRANCH   2   4
ENDBRANCH   1   2
BRANCH   1  14
ATOM     14  N   UNL     1      31.304  12.874  -5.330  1.00  0.00    -0.340 N
ATOM     15  C   UNL     1      30.311  11.926  -5.187  1.00  0.00     0.255 C
ATOM     16  O   UNL     1      29.141  12.104  -5.501  1.00  0.00    -0.269 OA
ATOM     17  H   UNL     1      32.217  12.625  -4.956  1.00  0.00     0.164 HD
BRANCH  15  18
ATOM     18  C   UNL     1      30.777  10.671  -4.598  1.00  0.00     0.085 A
ATOM     19  C   UNL     1      30.166   9.425  -4.667  1.00  0.00     0.100 A
ATOM     20  C   UNL     1      31.924  10.483  -3.792  1.00  0.00     0.120 A
ATOM     21  N   UNL     1      30.915   8.524  -3.937  1.00  0.00    -0.344 N
ATOM     22  N   UNL     1      32.842  11.393  -3.410  1.00  0.00    -0.246 NA
ATOM     23  C   UNL     1      31.991   9.164  -3.384  1.00  0.00     0.156 A
ATOM     24  C   UNL     1      33.815  10.952  -2.579  1.00  0.00     0.066 A
ATOM     25  N   UNL     1      32.939   8.639  -2.582  1.00  0.00    -0.235 NA
ATOM     26  C   UNL     1      33.835   9.602  -2.198  1.00  0.00     0.138 A
ATOM     27  H   UNL     1      30.706   7.545  -3.799  1.00  0.00     0.168 HD
BRANCH  24  28
ATOM     28  C   UNL     1      34.825  12.038  -2.129  1.00  0.00     0.014 C
ATOM     29  C   UNL     1      35.659  11.797  -0.884  1.00  0.00     0.014 C
ATOM     30  C   UNL     1      36.317  11.788  -2.236  1.00  0.00     0.014 C
BRANCH  28  31
ATOM     31  C   UNL     1      34.268  13.442  -2.392  1.00  0.00     0.013 C
ATOM     32  G   UNL     1      35.163  14.556  -2.899  1.00  0.00     0.000 C
ENDBRANCH  28  31
ENDBRANCH  24  28
ENDBRANCH  15  18
ENDBRANCH   1  14
BRANCH   1  33
ATOM     33  C   UNL     1      32.316  15.118  -5.332  1.00  0.00     0.021 C
ATOM     34  C   UNL     1      32.242  16.473  -4.666  1.00  0.00     0.006 C
ATOM     35  C   UNL     1      32.546  16.380  -6.132  1.00  0.00     0.006 C
ENDBRANCH   1  33
TORSDOF 1
ENDMDL
MODEL 6
REMARK VINA RESULT:      -7.8      2.375      4.161
REMARK SMILES N#C[C@H]1C[C@@H]2CCCC3(CC3)c3cnc4[nH]cc(c4n3)C(=O)N[C@H](C3CC3)C(=O)N2C1
REMARK SMILES IDX 24 1 28 2 29 3 30 4 1 5 2 6 3 7 4 8 31 9 5 10 6 11 7 12
REMARK SMILES IDX 23 14 21 15 22 16 18 18 17 19 19 20 16 21 20 22 15 23 12 24
REMARK SMILES IDX 14 25 13 26 9 28 10 29 11 30 8 31 25 33 26 34 27 35
REMARK H PARENT 23 17 16 27
REMARK Flexibility Score:   67.900
ROOT
ATOM      1  C   UNL     1      32.596  15.082  -3.156  1.00  0.00     0.175 C
ENDROOT
BRANCH   1   2
ATOM      2  C   UNL     1      32.237  14.706  -4.633  1.00  0.00     0.245 C
ATOM      3  O   UNL     1      32.678  13.660  -5.122  1.00  0.00    -0.272 OA
BRANCH   2   4
ATOM      4  N   UNL     1      31.479  15.577  -5.412  1.00  0.00    -0.337 N
ATOM      5  N   UNL     1      27.558  15.860  -4.577  1.00  0.00    -0.198 NA
ATOM      6  C   UNL     1      28.388  16.050  -5.363  1.00  0.00     0.067 C
ATOM      7  C   UNL     1      29.427  16.299  -6.375  1.00  0.00     0.114 C
ATOM      8  C   UNL     1      30.265  17.529  -6.035  1.00  0.00     0.045 C
ATOM      9  C   UNL     1      30.466  15.179  -6.390  1.00  0.00     0.138 C
ATOM     10  C   UNL     1      31.330  17.001  -5.060  1.00  0.00     0.086 C
BRANCH  10  11
ATOM     11  C   UNL     1      32.617  17.866  -5.034  1.00  0.00     0.025 C
BRANCH  11  12
ATOM     12  C   UNL     1      33.864  17.388  -5.814  1.00  0.00     0.003 C
ATOM     13  G   UNL     1      33.714  17.626  -7.304  1.00  0.00     0.000 C
ENDBRANCH  11  12
ENDBRANCH  10  11
ENDBRANCH   2   4
ENDBRANCH   1   2
BRANCH   1  14
ATOM     14  N   UNL     1      33.181  13.940  -2.467  1.00  0.00    -0.340 N
ATOM     15  C   UNL     1      34.516  13.593  -2.511  1.00  0.00     0.255 C
ATOM     16  O   UNL     1      35.407  14.337  -2.902  1.00  0.00    -0.269 OA
ATOM     17  H   UNL     1      32.535  13.202  -2.197  1.00  0.00     0.164 HD
BRANCH  15  18
ATOM     18  C   UNL     1      34.783  12.226  -2.064  1.00  0.00     0.085 A
ATOM     19  C   UNL     1      35.875  11.771  -1.337  1.00  0.00     0.100 A
ATOM     20  C   UNL     1      34.002  11.076  -2.329  1.00  0.00     0.120 A
ATOM     21  N   UNL     1      35.755  10.406  -1.167  1.00  0.00    -0.344 N
ATOM     22  N   UNL     1      32.847  10.984  -3.018  1.00  0.00    -0.246 NA
ATOM     23  C   UNL     1      34.615   9.965  -1.782  1.00  0.00     0.156 A
ATOM     24  C   UNL     1      32.337   9.740  -3.173  1.00  0.00     0.066 A
ATOM     25  N   UNL     1      34.161   8.699  -1.867  1.00  0.00    -0.235 NA
ATOM     26  C   UNL     1      33.002   8.647  -2.595  1.00  0.00     0.138 A
ATOM     27  H   UNL     1      36.410   9.803  -0.688  1.00  0.00     0.168 HD
BRANCH  24  28
ATOM     28  C   UNL     1      31.034   9.672  -4.008  1.00  0.00     0.014 C
ATOM     29  C   UNL     1      29.881  10.591  -3.646  1.00  0.00     0.014 C
ATOM     30  C   UNL     1      30.648  10.821  -4.919  1.00  0.00     0.014 C
BRANCH  28  31
ATOM     31  C   UNL     1      30.733   8.230  -4.432  1.00  0.00     0.013 C
ATOM     32  G   UNL     1      29.777   7.934  -5.571  1.00  0.00     0.000 C
ENDBRANCH  28  31
ENDBRANCH  24  28
ENDBRANCH  15  18
ENDBRANCH   1  14
BRANCH   1  33
ATOM     33  C   UNL     1      31.435  15.674  -2.393  1.00  0.00     0.021 C
ATOM     34  C   UNL     1      31.130  15.239  -0.977  1.00  0.00     0.006 C
ATOM     35  C   UNL     1      30.215  14.831  -2.093  1.00  0.00     0.006 C
ENDBRANCH   1  33
TORSDOF 1
ENDMDL
MODEL 7
REMARK VINA RESULT:      -7.8      2.277      4.119
REMARK SMILES N#C[C@H]1C[C@@H]2CCCC3(CC3)c3cnc4[nH]cc(c4n3)C(=O)N[C@H](C3CC3)C(=O)N2C1
REMARK SMILES IDX 24 1 28 2 29 3 30 4 1 5 2 6 3 7 4 8 31 9 5 10 6 11 7 12
REMARK SMILES IDX 23 14 21 15 22 16 18 18 17 19 19 20 16 21 20 22 15 23 12 24
REMARK SMILES IDX 14 25 13 26 9 28 10 29 11 30 8 31 25 33 26 34 27 35
REMARK H PARENT 23 17 16 27
REMARK Flexibility Score:   67.900
ROOT
ATOM      1  C   UNL     1      28.457  13.495  -4.376  1.00  0.00     0.175 C
ENDROOT
BRANCH   1   2
ATOM      2  C   UNL     1      27.439  14.592  -4.841  1.00  0.00     0.245 C
ATOM      3  O   UNL     1      26.308  14.625  -4.343  1.00  0.00    -0.272 OA
BRANCH   2   4
ATOM      4  N   UNL     1      27.784  15.481  -5.854  1.00  0.00    -0.337 N
ATOM      5  N   UNL     1      24.914  16.481  -8.485  1.00  0.00    -0.198 NA
ATOM      6  C   UNL     1      26.054  16.447  -8.273  1.00  0.00     0.067 C
ATOM      7  C   UNL     1      27.504  16.413  -8.025  1.00  0.00     0.114 C
ATOM      8  C   UNL     1      27.941  17.523  -7.072  1.00  0.00     0.045 C
ATOM      9  C   UNL     1      27.907  15.146  -7.273  1.00  0.00     0.138 C
ATOM     10  C   UNL     1      27.680  16.941  -5.673  1.00  0.00     0.086 C
BRANCH  10  11
ATOM     11  C   UNL     1      28.558  17.585  -4.570  1.00  0.00     0.025 C
BRANCH  11  12
ATOM     12  C   UNL     1      30.056  17.848  -4.854  1.00  0.00     0.003 C
ATOM     13  G   UNL     1      30.352  19.332  -4.953  1.00  0.00     0.000 C
ENDBRANCH  11  12
ENDBRANCH  10  11
ENDBRANCH   2   4
ENDBRANCH   1   2
BRANCH   1  14
ATOM     14  N   UNL     1      29.732  14.102  -4.020  1.00  0.00    -0.340 N
ATOM     15  C   UNL     1      30.837  14.156  -4.845  1.00  0.00     0.255 C
ATOM     16  O   UNL     1      30.804  13.950  -6.052  1.00  0.00    -0.269 OA
ATOM     17  H   UNL     1      29.911  14.214  -3.024  1.00  0.00     0.164 HD
BRANCH  15  18
ATOM     18  C   UNL     1      32.082  14.464  -4.142  1.00  0.00     0.085 A
ATOM     19  C   UNL     1      32.704  15.700  -4.023  1.00  0.00     0.100 A
ATOM     20  C   UNL     1      32.934  13.548  -3.480  1.00  0.00     0.120 A
ATOM     21  N   UNL     1      33.878  15.538  -3.316  1.00  0.00    -0.344 N
ATOM     22  N   UNL     1      32.785  12.217  -3.331  1.00  0.00    -0.246 NA
ATOM     23  C   UNL     1      34.038  14.218  -2.988  1.00  0.00     0.156 A
ATOM     24  C   UNL     1      33.791  11.567  -2.701  1.00  0.00     0.066 A
ATOM     25  N   UNL     1      35.068  13.652  -2.326  1.00  0.00    -0.235 NA
ATOM     26  C   UNL     1      34.888  12.298  -2.220  1.00  0.00     0.138 A
ATOM     27  H   UNL     1      34.544  16.262  -3.087  1.00  0.00     0.168 HD
BRANCH  24  28
ATOM     28  C   UNL     1      33.602  10.033  -2.588  1.00  0.00     0.014 C
ATOM     29  C   UNL     1      34.830   9.144  -2.506  1.00  0.00     0.014 C
ATOM     30  C   UNL     1      33.949   9.312  -1.299  1.00  0.00     0.014 C
BRANCH  28  31
ATOM     31  C   UNL     1      32.400   9.570  -3.419  1.00  0.00     0.013 C
ATOM     32  G   UNL     1      31.279   8.765  -2.791  1.00  0.00     0.000 C
ENDBRANCH  28  31
ENDBRANCH  24  28
ENDBRANCH  15  18
ENDBRANCH   1  14
BRANCH   1  33
ATOM     33  C   UNL     1      28.619  12.373  -5.373  1.00  0.00     0.021 C
ATOM     34  C   UNL     1      27.489  11.408  -5.652  1.00  0.00     0.006 C
ATOM     35  C   UNL     1      28.697  10.940  -4.897  1.00  0.00     0.006 C
ENDBRANCH   1  33
TORSDOF 1
ENDMDL
MODEL 8
REMARK VINA RESULT:      -7.8      2.508      5.049
REMARK SMILES N#C[C@H]1C[C@@H]2CCCC3(CC3)c3cnc4[nH]cc(c4n3)C(=O)N[C@H](C3CC3)C(=O)N2C1
REMARK SMILES IDX 24 1 28 2 29 3 30 4 1 5 2 6 3 7 4 8 31 9 5 10 6 11 7 12
REMARK SMILES IDX 23 14 21 15 22 16 18 18 17 19 19 20 16 21 20 22 15 23 12 24
REMARK SMILES IDX 14 25 13 26 9 28 10 29 11 30 8 31 25 33 26 34 27 35
REMARK H PARENT 23 17 16 27
REMARK Flexibility Score:   67.900
ROOT
ATOM      1  C   UNL     1      29.279  14.285  -5.843  1.00  0.00     0.175 C
ENDROOT
BRANCH   1   2
ATOM      2  C   UNL     1      30.807  14.627  -5.805  1.00  0.00     0.245 C
ATOM      3  O   UNL     1      31.639  13.721  -5.922  1.00  0.00    -0.272 OA
BRANCH   2   4
ATOM      4  N   UNL     1      31.225  15.935  -5.577  1.00  0.00    -0.337 N
ATOM      5  N   UNL     1      28.373  18.718  -5.052  1.00  0.00    -0.198 NA
ATOM      6  C   UNL     1      29.486  18.520  -5.309  1.00  0.00     0.067 C
ATOM      7  C   UNL     1      30.902  18.291  -5.638  1.00  0.00     0.114 C
ATOM      8  C   UNL     1      31.722  17.944  -4.398  1.00  0.00     0.045 C
ATOM      9  C   UNL     1      31.074  17.050  -6.513  1.00  0.00     0.138 C
ATOM     10  C   UNL     1      31.511  16.432  -4.219  1.00  0.00     0.086 C
BRANCH  10  11
ATOM     11  C   UNL     1      32.659  15.743  -3.436  1.00  0.00     0.025 C
BRANCH  11  12
ATOM     12  C   UNL     1      32.328  14.964  -2.141  1.00  0.00     0.003 C
ATOM     13  G   UNL     1      30.947  15.310  -1.621  1.00  0.00     0.000 C
ENDBRANCH  11  12
ENDBRANCH  10  11
ENDBRANCH   2   4
ENDBRANCH   1   2
BRANCH   1  14
ATOM     14  N   UNL     1      29.081  12.854  -6.032  1.00  0.00    -0.340 N
ATOM     15  C   UNL     1      28.127  12.098  -5.383  1.00  0.00     0.255 C
ATOM     16  O   UNL     1      27.168  12.569  -4.784  1.00  0.00    -0.269 OA
ATOM     17  H   UNL     1      29.869  12.342  -6.422  1.00  0.00     0.164 HD
BRANCH  15  18
ATOM     18  C   UNL     1      28.371  10.658  -5.451  1.00  0.00     0.085 A
ATOM     19  C   UNL     1      27.536   9.681  -5.979  1.00  0.00     0.100 A
ATOM     20  C   UNL     1      29.493   9.960  -4.944  1.00  0.00     0.120 A
ATOM     21  N   UNL     1      28.131   8.448  -5.801  1.00  0.00    -0.344 N
ATOM     22  N   UNL     1      30.578  10.455  -4.317  1.00  0.00    -0.246 NA
ATOM     23  C   UNL     1      29.327   8.605  -5.155  1.00  0.00     0.156 A
ATOM     24  C   UNL     1      31.483   9.550  -3.876  1.00  0.00     0.066 A
ATOM     25  N   UNL     1      30.191   7.642  -4.774  1.00  0.00    -0.235 NA
ATOM     26  C   UNL     1      31.264   8.185  -4.120  1.00  0.00     0.138 A
ATOM     27  H   UNL     1      27.748   7.554  -6.075  1.00  0.00     0.168 HD
BRANCH  24  28
ATOM     28  C   UNL     1      32.693  10.156  -3.123  1.00  0.00     0.014 C
ATOM     29  C   UNL     1      33.750  10.908  -3.912  1.00  0.00     0.014 C
ATOM     30  C   UNL     1      32.835  11.660  -2.986  1.00  0.00     0.014 C
BRANCH  28  31
ATOM     31  C   UNL     1      33.132   9.242  -1.972  1.00  0.00     0.013 C
ATOM     32  G   UNL     1      34.570   9.225  -1.493  1.00  0.00     0.000 C
ENDBRANCH  28  31
ENDBRANCH  24  28
ENDBRANCH  15  18
ENDBRANCH   1  14
BRANCH   1  33
ATOM     33  C   UNL     1      28.510  15.104  -6.851  1.00  0.00     0.021 C
ATOM     34  C   UNL     1      27.049  15.432  -6.639  1.00  0.00     0.006 C
ATOM     35  C   UNL     1      27.444  14.453  -7.705  1.00  0.00     0.006 C
ENDBRANCH   1  33
TORSDOF 1
ENDMDL
MODEL 9
REMARK VINA RESULT:      -7.8      1.439      1.740
REMARK SMILES N#C[C@H]1C[C@@H]2CCCC3(CC3)c3cnc4[nH]cc(c4n3)C(=O)N[C@H](C3CC3)C(=O)N2C1
REMARK SMILES IDX 24 1 28 2 29 3 30 4 1 5 2 6 3 7 4 8 31 9 5 10 6 11 7 12
REMARK SMILES IDX 23 14 21 15 22 16 18 18 17 19 19 20 16 21 20 22 15 23 12 24
REMARK SMILES IDX 14 25 13 26 9 28 10 29 11 30 8 31 25 33 26 34 27 35
REMARK H PARENT 23 17 16 27
REMARK Flexibility Score:   67.900
ROOT
ATOM      1  C   UNL     1      29.026  15.289  -5.658  1.00  0.00     0.175 C
ENDROOT
BRANCH   1   2
ATOM      2  C   UNL     1      29.113  16.542  -6.594  1.00  0.00     0.245 C
ATOM      3  O   UNL     1      29.023  16.397  -7.818  1.00  0.00    -0.272 OA
BRANCH   2   4
ATOM      4  N   UNL     1      29.354  17.802  -6.054  1.00  0.00    -0.337 N
ATOM      5  N   UNL     1      32.931  19.474  -6.805  1.00  0.00    -0.198 NA
ATOM      6  C   UNL     1      31.991  19.482  -6.127  1.00  0.00     0.067 C
ATOM      7  C   UNL     1      30.806  19.509  -5.255  1.00  0.00     0.114 C
ATOM      8  C   UNL     1      29.612  20.168  -5.941  1.00  0.00     0.045 C
ATOM      9  C   UNL     1      30.294  18.097  -4.972  1.00  0.00     0.138 C
ATOM     10  C   UNL     1      28.985  19.036  -6.772  1.00  0.00     0.086 C
BRANCH  10  11
ATOM     11  C   UNL     1      27.480  19.261  -7.073  1.00  0.00     0.025 C
BRANCH  11  12
ATOM     12  C   UNL     1      26.827  20.610  -6.690  1.00  0.00     0.003 C
ATOM     13  G   UNL     1      26.272  21.325  -7.907  1.00  0.00     0.000 C
ENDBRANCH  11  12
ENDBRANCH  10  11
ENDBRANCH   2   4
ENDBRANCH   1   2
BRANCH   1  14
ATOM     14  N   UNL     1      30.340  14.962  -5.120  1.00  0.00    -0.340 N
ATOM     15  C   UNL     1      30.572  14.468  -3.853  1.00  0.00     0.255 C
ATOM     16  O   UNL     1      29.704  13.994  -3.131  1.00  0.00    -0.269 OA
ATOM     17  H   UNL     1      31.133  15.401  -5.583  1.00  0.00     0.164 HD
BRANCH  15  18
ATOM     18  C   UNL     1      31.966  14.580  -3.425  1.00  0.00     0.085 A
ATOM     19  C   UNL     1      32.734  15.733  -3.333  1.00  0.00     0.100 A
ATOM     20  C   UNL     1      32.832  13.521  -3.063  1.00  0.00     0.120 A
ATOM     21  N   UNL     1      34.008  15.385  -2.930  1.00  0.00    -0.344 N
ATOM     22  N   UNL     1      32.570  12.200  -3.011  1.00  0.00    -0.246 NA
ATOM     23  C   UNL     1      34.084  14.028  -2.773  1.00  0.00     0.156 A
ATOM     24  C   UNL     1      33.608  11.393  -2.689  1.00  0.00     0.066 A
ATOM     25  N   UNL     1      35.162  13.299  -2.419  1.00  0.00    -0.235 NA
ATOM     26  C   UNL     1      34.859  11.963  -2.402  1.00  0.00     0.138 A
ATOM     27  H   UNL     1      34.784  16.016  -2.790  1.00  0.00     0.168 HD
BRANCH  24  28
ATOM     28  C   UNL     1      33.276   9.880  -2.682  1.00  0.00     0.014 C
ATOM     29  C   UNL     1      34.399   8.882  -2.466  1.00  0.00     0.014 C
ATOM     30  C   UNL     1      33.363   9.083  -1.394  1.00  0.00     0.014 C
BRANCH  28  31
ATOM     31  C   UNL     1      32.179   9.558  -3.704  1.00  0.00     0.013 C
ATOM     32  G   UNL     1      31.340   8.302  -3.579  1.00  0.00     0.000 C
ENDBRANCH  28  31
ENDBRANCH  24  28
ENDBRANCH  15  18
ENDBRANCH   1  14
BRANCH   1  33
ATOM     33  C   UNL     1      28.368  14.099  -6.315  1.00  0.00     0.021 C
ATOM     34  C   UNL     1      26.907  14.132  -6.703  1.00  0.00     0.006 C
ATOM     35  C   UNL     1      27.352  13.277  -5.553  1.00  0.00     0.006 C
ENDBRANCH   1  33
TORSDOF 1
ENDMDL
