MODEL 1
REMARK VINA RESULT:      -9.4      0.000      0.000
REMARK SMILES NC(=O)c1cnc2c3c1[nH]c1cc(ccc13)-c1ccc(nn1)N1CCS(=O)(=O)[C@H](CNCC3(CC3)[C@H](C(F)(F)F)N2)C1
REMARK SMILES IDX 4 1 5 2 6 3 7 4 8 5 9 6 10 7 11 8 12 9 13 10 14 11 15 12
REMARK SMILES IDX 16 13 2 15 1 16 3 17 41 20 36 22 33 23 34 24 35 25 37 27
REMARK SMILES IDX 38 28 39 29 40 30 17 31 18 32 22 33 19 34 21 35 20 36 23 37
REMARK SMILES IDX 24 38 42 39 25 40 29 41 26 42 27 43 28 44 30 45 31 46 32 48
REMARK H PARENT 10 14 1 18 1 19 41 21 31 47
REMARK Flexibility Score:   57.900
ROOT
ATOM      1  C   UNL     1      34.279  10.763  -2.292  1.00  0.00     0.082 A
ATOM      2  C   UNL     1      34.649  12.093  -2.433  1.00  0.00     0.129 A
ATOM      3  N   UNL     1      34.025  13.001  -3.227  1.00  0.00    -0.238 NA
ATOM      4  C   UNL     1      32.954  12.626  -3.965  1.00  0.00     0.136 A
ATOM      5  C   UNL     1      32.432  11.326  -3.799  1.00  0.00     0.051 A
ATOM      6  C   UNL     1      33.126  10.415  -3.001  1.00  0.00     0.065 A
ATOM      7  N   UNL     1      32.474   9.204  -3.098  1.00  0.00    -0.354 N
ATOM      8  C   UNL     1      31.379   9.303  -3.923  1.00  0.00     0.047 A
ATOM      9  C   UNL     1      30.510   8.311  -4.405  1.00  0.00     0.037 A
ATOM     10  C   UNL     1      29.498   8.697  -5.305  1.00  0.00     0.004 A
ATOM     11  C   UNL     1      29.304  10.069  -5.560  1.00  0.00     0.011 A
ATOM     12  C   UNL     1      30.175  11.040  -5.064  1.00  0.00     0.012 A
ATOM     13  C   UNL     1      31.277  10.641  -4.292  1.00  0.00     0.011 A
ATOM     14  H   UNL     1      32.795   8.359  -2.639  1.00  0.00     0.167 HD
ENDROOT
BRANCH   1  15
ATOM     15  C   UNL     1      34.988   9.768  -1.461  1.00  0.00     0.252 C
ATOM     16  N   UNL     1      35.922  10.202  -0.564  1.00  0.00    -0.365 N
ATOM     17  O   UNL     1      34.761   8.568  -1.586  1.00  0.00    -0.269 OA
ATOM     18  H   UNL     1      36.218  11.157  -0.434  1.00  0.00     0.159 HD
ATOM     19  H   UNL     1      36.393   9.490  -0.018  1.00  0.00     0.159 HD
ENDBRANCH   1  15
BRANCH   4  20
ATOM     20  N   UNL     1      32.440  13.582  -4.830  1.00  0.00    -0.358 N
ATOM     21  H   UNL     1      31.560  13.217  -5.189  1.00  0.00     0.162 HD
BRANCH  20  22
ATOM     22  C   UNL     1      32.248  14.968  -4.300  1.00  0.00     0.194 C
BRANCH  22  23
ATOM     23  C   UNL     1      30.986  15.031  -3.386  1.00  0.00     0.012 C
ATOM     24  C   UNL     1      31.198  14.887  -1.878  1.00  0.00     0.011 C
ATOM     25  C   UNL     1      30.899  16.238  -2.449  1.00  0.00     0.011 C
ATOM     26  G   UNL     1      29.682  14.557  -4.042  1.00  0.00     0.000 C
ENDBRANCH  22  23
BRANCH  22  27
ATOM     27  C   UNL     1      32.389  16.174  -5.277  1.00  0.00     0.409 C
ATOM     28  F   UNL     1      31.283  16.947  -5.346  1.00  0.00    -0.169 F
ATOM     29  F   UNL     1      33.409  16.983  -4.880  1.00  0.00    -0.169 F
ATOM     30  F   UNL     1      32.702  15.778  -6.534  1.00  0.00    -0.169 F
ENDBRANCH  22  27
ENDBRANCH  20  22
ENDBRANCH   4  20
BRANCH  10  31
ATOM     31  C   UNL     1      28.853   7.713  -6.195  1.00  0.00     0.093 A
ATOM     32  C   UNL     1      27.499   7.426  -6.143  1.00  0.00     0.035 A
ATOM     33  N   UNL     1      29.534   7.504  -7.339  1.00  0.00    -0.148 NA
ATOM     34  C   UNL     1      26.809   7.320  -7.351  1.00  0.00     0.051 A
ATOM     35  N   UNL     1      28.850   7.398  -8.504  1.00  0.00    -0.132 NA
ATOM     36  C   UNL     1      27.510   7.558  -8.525  1.00  0.00     0.151 A
BRANCH  36  37
ATOM     37  N   UNL     1      26.957   8.303  -9.589  1.00  0.00    -0.353 N
ATOM     38  C   UNL     1      25.626   7.978 -10.130  1.00  0.00     0.134 C
ATOM     39  C   UNL     1      27.287   9.748  -9.438  1.00  0.00     0.139 C
ATOM     40  C   UNL     1      24.993   9.158 -10.848  1.00  0.00     0.159 C
ATOM     41  C   UNL     1      26.177  10.384  -8.598  1.00  0.00     0.141 C
ATOM     42  S   UNL     1      24.773  10.519  -9.700  1.00  0.00     0.157 S
ATOM     43  O   UNL     1      24.898  11.746 -10.466  1.00  0.00    -0.228 OA
ATOM     44  O   UNL     1      23.564  10.251  -8.942  1.00  0.00    -0.228 OA
BRANCH  41  45
ATOM     45  C   UNL     1      26.588  11.701  -7.939  1.00  0.00     0.102 C
BRANCH  45  46
ATOM     46  N   UNL     1      25.417  12.565  -7.705  1.00  0.00    -0.315 NA
ATOM     47  H   UNL     1      25.055  12.885  -8.604  1.00  0.00     0.122 HD
BRANCH  46  48
ATOM     48  C   UNL     1      25.742  13.723  -6.864  1.00  0.00     0.090 C
ATOM     49  G   UNL     1      26.633  13.388  -5.660  1.00  0.00     0.000 C
ENDBRANCH  46  48
ENDBRANCH  45  46
ENDBRANCH  41  45
ENDBRANCH  36  37
ENDBRANCH  10  31
TORSDOF 2
ENDMDL
MODEL 2
REMARK VINA RESULT:      -9.2      1.950      2.531
REMARK SMILES NC(=O)c1cnc2c3c1[nH]c1cc(ccc13)-c1ccc(nn1)N1CCS(=O)(=O)[C@H](CNCC3(CC3)[C@H](C(F)(F)F)N2)C1
REMARK SMILES IDX 4 1 5 2 6 3 7 4 8 5 9 6 10 7 11 8 12 9 13 10 14 11 15 12
REMARK SMILES IDX 16 13 2 15 1 16 3 17 41 20 36 22 33 23 34 24 35 25 37 27
REMARK SMILES IDX 38 28 39 29 40 30 17 31 18 32 22 33 19 34 21 35 20 36 23 37
REMARK SMILES IDX 24 38 42 39 25 40 29 41 26 42 27 43 28 44 30 45 31 46 32 48
REMARK H PARENT 10 14 1 18 1 19 41 21 31 47
REMARK Flexibility Score:   57.900
ROOT
ATOM      1  C   UNL     1      33.964  10.686  -2.352  1.00  0.00     0.082 A
ATOM      2  C   UNL     1      34.088  12.021  -2.709  1.00  0.00     0.129 A
ATOM      3  N   UNL     1      33.342  12.654  -3.650  1.00  0.00    -0.238 NA
ATOM      4  C   UNL     1      32.390  11.969  -4.327  1.00  0.00     0.136 A
ATOM      5  C   UNL     1      32.110  10.638  -3.952  1.00  0.00     0.051 A
ATOM      6  C   UNL     1      32.926  10.016  -3.005  1.00  0.00     0.065 A
ATOM      7  N   UNL     1      32.513   8.704  -2.906  1.00  0.00    -0.354 N
ATOM      8  C   UNL     1      31.455   8.459  -3.748  1.00  0.00     0.047 A
ATOM      9  C   UNL     1      30.805   7.257  -4.067  1.00  0.00     0.037 A
ATOM     10  C   UNL     1      29.778   7.293  -5.030  1.00  0.00     0.004 A
ATOM     11  C   UNL     1      29.345   8.544  -5.513  1.00  0.00     0.011 A
ATOM     12  C   UNL     1      30.000   9.729  -5.176  1.00  0.00     0.012 A
ATOM     13  C   UNL     1      31.123   9.677  -4.337  1.00  0.00     0.011 A
ATOM     14  H   UNL     1      32.965   8.020  -2.309  1.00  0.00     0.167 HD
ENDROOT
BRANCH   1  15
ATOM     15  C   UNL     1      34.809   9.990  -1.358  1.00  0.00     0.252 C
ATOM     16  N   UNL     1      35.910  10.630  -0.864  1.00  0.00    -0.365 N
ATOM     17  O   UNL     1      34.542   8.848  -0.996  1.00  0.00    -0.269 OA
ATOM     18  H   UNL     1      36.240  11.541  -1.145  1.00  0.00     0.159 HD
ATOM     19  H   UNL     1      36.468  10.119  -0.191  1.00  0.00     0.159 HD
ENDBRANCH   1  15
BRANCH   4  20
ATOM     20  N   UNL     1      31.746  12.657  -5.345  1.00  0.00    -0.358 N
ATOM     21  H   UNL     1      31.259  11.966  -5.911  1.00  0.00     0.162 HD
BRANCH  20  22
ATOM     22  C   UNL     1      30.811  13.759  -4.955  1.00  0.00     0.194 C
BRANCH  22  23
ATOM     23  C   UNL     1      31.549  15.133  -4.982  1.00  0.00     0.012 C
ATOM     24  C   UNL     1      32.472  15.416  -6.169  1.00  0.00     0.011 C
ATOM     25  C   UNL     1      31.137  16.090  -6.104  1.00  0.00     0.011 C
ATOM     26  G   UNL     1      31.834  15.748  -3.605  1.00  0.00     0.000 C
ENDBRANCH  22  23
BRANCH  22  27
ATOM     27  C   UNL     1      29.883  13.558  -3.719  1.00  0.00     0.409 C
ATOM     28  F   UNL     1      30.513  13.727  -2.536  1.00  0.00    -0.169 F
ATOM     29  F   UNL     1      28.860  14.454  -3.750  1.00  0.00    -0.169 F
ATOM     30  F   UNL     1      29.301  12.335  -3.713  1.00  0.00    -0.169 F
ENDBRANCH  22  27
ENDBRANCH  20  22
ENDBRANCH   4  20
BRANCH  10  31
ATOM     31  C   UNL     1      29.364   6.075  -5.751  1.00  0.00     0.093 A
ATOM     32  C   UNL     1      28.200   5.384  -5.454  1.00  0.00     0.035 A
ATOM     33  N   UNL     1      29.899   5.978  -6.983  1.00  0.00    -0.148 NA
ATOM     34  C   UNL     1      27.412   4.949  -6.520  1.00  0.00     0.051 A
ATOM     35  N   UNL     1      29.122   5.549  -8.008  1.00  0.00    -0.132 NA
ATOM     36  C   UNL     1      27.815   5.278  -7.807  1.00  0.00     0.151 A
BRANCH  36  37
ATOM     37  N   UNL     1      26.900   5.705  -8.792  1.00  0.00    -0.353 N
ATOM     38  C   UNL     1      25.464   5.395  -8.677  1.00  0.00     0.134 C
ATOM     39  C   UNL     1      27.257   7.067  -9.280  1.00  0.00     0.139 C
ATOM     40  C   UNL     1      24.603   6.351  -9.485  1.00  0.00     0.159 C
ATOM     41  C   UNL     1      26.542   8.075  -8.377  1.00  0.00     0.141 C
ATOM     42  S   UNL     1      24.826   8.025  -8.883  1.00  0.00     0.157 S
ATOM     43  O   UNL     1      24.649   8.914 -10.017  1.00  0.00    -0.228 OA
ATOM     44  O   UNL     1      23.994   8.173  -7.703  1.00  0.00    -0.228 OA
BRANCH  41  45
ATOM     45  C   UNL     1      27.167   9.471  -8.407  1.00  0.00     0.102 C
BRANCH  45  46
ATOM     46  N   UNL     1      26.243  10.477  -7.854  1.00  0.00    -0.315 NA
ATOM     47  H   UNL     1      25.285  10.140  -7.955  1.00  0.00     0.122 HD
BRANCH  46  48
ATOM     48  C   UNL     1      26.382  11.780  -8.515  1.00  0.00     0.090 C
ATOM     49  G   UNL     1      26.931  11.697  -9.946  1.00  0.00     0.000 C
ENDBRANCH  46  48
ENDBRANCH  45  46
ENDBRANCH  41  45
ENDBRANCH  36  37
ENDBRANCH  10  31
TORSDOF 2
ENDMDL
MODEL 3
REMARK VINA RESULT:      -9.0      1.417      1.981
REMARK SMILES NC(=O)c1cnc2c3c1[nH]c1cc(ccc13)-c1ccc(nn1)N1CCS(=O)(=O)[C@H](CNCC3(CC3)[C@H](C(F)(F)F)N2)C1
REMARK SMILES IDX 4 1 5 2 6 3 7 4 8 5 9 6 10 7 11 8 12 9 13 10 14 11 15 12
REMARK SMILES IDX 16 13 2 15 1 16 3 17 41 20 36 22 33 23 34 24 35 25 37 27
REMARK SMILES IDX 38 28 39 29 40 30 17 31 18 32 22 33 19 34 21 35 20 36 23 37
REMARK SMILES IDX 24 38 42 39 25 40 29 41 26 42 27 43 28 44 30 45 31 46 32 48
REMARK H PARENT 10 14 1 18 1 19 41 21 31 47
REMARK Flexibility Score:   57.900
ROOT
ATOM      1  C   UNL     1      33.905  10.611  -2.436  1.00  0.00     0.082 A
ATOM      2  C   UNL     1      34.021  11.986  -2.575  1.00  0.00     0.129 A
ATOM      3  N   UNL     1      33.223  12.767  -3.348  1.00  0.00    -0.238 NA
ATOM      4  C   UNL     1      32.222  12.205  -4.065  1.00  0.00     0.136 A
ATOM      5  C   UNL     1      31.951  10.830  -3.897  1.00  0.00     0.051 A
ATOM      6  C   UNL     1      32.819  10.059  -3.121  1.00  0.00     0.065 A
ATOM      7  N   UNL     1      32.398   8.749  -3.214  1.00  0.00    -0.354 N
ATOM      8  C   UNL     1      31.285   8.648  -4.013  1.00  0.00     0.047 A
ATOM      9  C   UNL     1      30.602   7.515  -4.483  1.00  0.00     0.037 A
ATOM     10  C   UNL     1      29.516   7.712  -5.358  1.00  0.00     0.004 A
ATOM     11  C   UNL     1      29.067   9.025  -5.598  1.00  0.00     0.011 A
ATOM     12  C   UNL     1      29.756  10.138  -5.113  1.00  0.00     0.012 A
ATOM     13  C   UNL     1      30.930   9.946  -4.370  1.00  0.00     0.011 A
ATOM     14  H   UNL     1      32.879   7.976  -2.768  1.00  0.00     0.167 HD
ENDROOT
BRANCH   1  15
ATOM     15  C   UNL     1      34.804   9.760  -1.628  1.00  0.00     0.252 C
ATOM     16  N   UNL     1      35.710  10.357  -0.799  1.00  0.00    -0.365 N
ATOM     17  O   UNL     1      34.755   8.536  -1.714  1.00  0.00    -0.269 OA
ATOM     18  H   UNL     1      35.863  11.349  -0.708  1.00  0.00     0.159 HD
ATOM     19  H   UNL     1      36.314   9.742  -0.268  1.00  0.00     0.159 HD
ENDBRANCH   1  15
BRANCH   4  20
ATOM     20  N   UNL     1      31.521  13.052  -4.911  1.00  0.00    -0.358 N
ATOM     21  H   UNL     1      31.080  12.470  -5.619  1.00  0.00     0.162 HD
BRANCH  20  22
ATOM     22  C   UNL     1      30.513  13.971  -4.295  1.00  0.00     0.194 C
BRANCH  22  23
ATOM     23  C   UNL     1      29.417  14.353  -5.337  1.00  0.00     0.012 C
ATOM     24  C   UNL     1      28.466  13.247  -5.799  1.00  0.00     0.011 C
ATOM     25  C   UNL     1      27.971  14.283  -4.840  1.00  0.00     0.011 C
ATOM     26  G   UNL     1      29.783  15.513  -6.273  1.00  0.00     0.000 C
ENDBRANCH  22  23
BRANCH  22  27
ATOM     27  C   UNL     1      31.014  15.167  -3.429  1.00  0.00     0.409 C
ATOM     28  F   UNL     1      32.134  15.750  -3.907  1.00  0.00    -0.169 F
ATOM     29  F   UNL     1      30.060  16.136  -3.372  1.00  0.00    -0.169 F
ATOM     30  F   UNL     1      31.245  14.804  -2.144  1.00  0.00    -0.169 F
ENDBRANCH  22  27
ENDBRANCH  20  22
ENDBRANCH   4  20
BRANCH  10  31
ATOM     31  C   UNL     1      29.041   6.629  -6.241  1.00  0.00     0.093 A
ATOM     32  C   UNL     1      27.823   5.994  -6.065  1.00  0.00     0.035 A
ATOM     33  N   UNL     1      29.609   6.653  -7.462  1.00  0.00    -0.148 NA
ATOM     34  C   UNL     1      27.043   5.759  -7.197  1.00  0.00     0.051 A
ATOM     35  N   UNL     1      28.839   6.417  -8.553  1.00  0.00    -0.132 NA
ATOM     36  C   UNL     1      27.511   6.220  -8.419  1.00  0.00     0.151 A
BRANCH  36  37
ATOM     37  N   UNL     1      26.660   6.835  -9.363  1.00  0.00    -0.353 N
ATOM     38  C   UNL     1      25.240   6.455  -9.463  1.00  0.00     0.134 C
ATOM     39  C   UNL     1      26.979   8.286  -9.481  1.00  0.00     0.139 C
ATOM     40  C   UNL     1      24.398   7.545 -10.106  1.00  0.00     0.159 C
ATOM     41  C   UNL     1      26.132   9.025  -8.442  1.00  0.00     0.141 C
ATOM     42  S   UNL     1      24.472   9.034  -9.110  1.00  0.00     0.157 S
ATOM     43  O   UNL     1      24.342  10.160 -10.018  1.00  0.00    -0.228 OA
ATOM     44  O   UNL     1      23.533   8.867  -8.015  1.00  0.00    -0.228 OA
BRANCH  41  45
ATOM     45  C   UNL     1      26.675  10.408  -8.084  1.00  0.00     0.102 C
BRANCH  45  46
ATOM     46  N   UNL     1      27.158  11.115  -9.284  1.00  0.00    -0.315 NA
ATOM     47  H   UNL     1      28.167  10.984  -9.363  1.00  0.00     0.122 HD
BRANCH  46  48
ATOM     48  C   UNL     1      26.848  12.549  -9.245  1.00  0.00     0.090 C
ATOM     49  G   UNL     1      25.727  12.918  -8.264  1.00  0.00     0.000 C
ENDBRANCH  46  48
ENDBRANCH  45  46
ENDBRANCH  41  45
ENDBRANCH  36  37
ENDBRANCH  10  31
TORSDOF 2
ENDMDL
MODEL 4
REMARK VINA RESULT:      -9.0      0.999      1.481
REMARK SMILES NC(=O)c1cnc2c3c1[nH]c1cc(ccc13)-c1ccc(nn1)N1CCS(=O)(=O)[C@H](CNCC3(CC3)[C@H](C(F)(F)F)N2)C1
REMARK SMILES IDX 4 1 5 2 6 3 7 4 8 5 9 6 10 7 11 8 12 9 13 10 14 11 15 12
REMARK SMILES IDX 16 13 2 15 1 16 3 17 41 20 36 22 33 23 34 24 35 25 37 27
REMARK SMILES IDX 38 28 39 29 40 30 17 31 18 32 22 33 19 34 21 35 20 36 23 37
REMARK SMILES IDX 24 38 42 39 25 40 29 41 26 42 27 43 28 44 30 45 31 46 32 48
REMARK H PARENT 10 14 1 18 1 19 41 21 31 47
REMARK Flexibility Score:   57.900
ROOT
ATOM      1  C   UNL     1      34.265  10.957  -2.282  1.00  0.00     0.082 A
ATOM      2  C   UNL     1      34.515  12.308  -2.475  1.00  0.00     0.129 A
ATOM      3  N   UNL     1      33.798  13.131  -3.283  1.00  0.00    -0.238 NA
ATOM      4  C   UNL     1      32.749  12.640  -3.984  1.00  0.00     0.136 A
ATOM      5  C   UNL     1      32.346  11.305  -3.764  1.00  0.00     0.051 A
ATOM      6  C   UNL     1      33.133  10.485  -2.953  1.00  0.00     0.065 A
ATOM      7  N   UNL     1      32.587   9.220  -2.996  1.00  0.00    -0.354 N
ATOM      8  C   UNL     1      31.472   9.195  -3.798  1.00  0.00     0.047 A
ATOM      9  C   UNL     1      30.683   8.116  -4.228  1.00  0.00     0.037 A
ATOM     10  C   UNL     1      29.624   8.382  -5.116  1.00  0.00     0.004 A
ATOM     11  C   UNL     1      29.304   9.722  -5.411  1.00  0.00     0.011 A
ATOM     12  C   UNL     1      30.097  10.782  -4.966  1.00  0.00     0.012 A
ATOM     13  C   UNL     1      31.245  10.507  -4.208  1.00  0.00     0.011 A
ATOM     14  H   UNL     1      32.990   8.422  -2.518  1.00  0.00     0.167 HD
ENDROOT
BRANCH   1  15
ATOM     15  C   UNL     1      35.076  10.055  -1.436  1.00  0.00     0.252 C
ATOM     16  N   UNL     1      36.203  10.545  -0.840  1.00  0.00    -0.365 N
ATOM     17  O   UNL     1      34.757   8.880  -1.286  1.00  0.00    -0.269 OA
ATOM     18  H   UNL     1      36.574  11.476  -0.954  1.00  0.00     0.159 HD
ATOM     19  H   UNL     1      36.736   9.896  -0.274  1.00  0.00     0.159 HD
ENDBRANCH   1  15
BRANCH   4  20
ATOM     20  N   UNL     1      32.136  13.517  -4.867  1.00  0.00    -0.358 N
ATOM     21  H   UNL     1      31.683  12.953  -5.582  1.00  0.00     0.162 HD
BRANCH  20  22
ATOM     22  C   UNL     1      31.170  14.510  -4.301  1.00  0.00     0.194 C
BRANCH  22  23
ATOM     23  C   UNL     1      30.161  14.971  -5.397  1.00  0.00     0.012 C
ATOM     24  C   UNL     1      29.131  13.949  -5.884  1.00  0.00     0.011 C
ATOM     25  C   UNL     1      28.694  15.047  -4.965  1.00  0.00     0.011 C
ATOM     26  G   UNL     1      30.673  16.073  -6.335  1.00  0.00     0.000 C
ENDBRANCH  22  23
BRANCH  22  27
ATOM     27  C   UNL     1      31.713  15.666  -3.408  1.00  0.00     0.409 C
ATOM     28  F   UNL     1      31.957  15.296  -2.132  1.00  0.00    -0.169 F
ATOM     29  F   UNL     1      32.887  16.135  -3.912  1.00  0.00    -0.169 F
ATOM     30  F   UNL     1      30.874  16.729  -3.384  1.00  0.00    -0.169 F
ENDBRANCH  22  27
ENDBRANCH  20  22
ENDBRANCH   4  20
BRANCH  10  31
ATOM     31  C   UNL     1      29.049   7.316  -5.959  1.00  0.00     0.093 A
ATOM     32  C   UNL     1      27.714   6.949  -5.902  1.00  0.00     0.035 A
ATOM     33  N   UNL     1      29.753   7.092  -7.085  1.00  0.00    -0.148 NA
ATOM     34  C   UNL     1      27.045   6.739  -7.107  1.00  0.00     0.051 A
ATOM     35  N   UNL     1      29.088   6.884  -8.249  1.00  0.00    -0.132 NA
ATOM     36  C   UNL     1      27.742   6.960  -8.287  1.00  0.00     0.151 A
BRANCH  36  37
ATOM     37  N   UNL     1      27.155   7.615  -9.392  1.00  0.00    -0.353 N
ATOM     38  C   UNL     1      25.779   7.301  -9.814  1.00  0.00     0.134 C
ATOM     39  C   UNL     1      27.558   9.049  -9.420  1.00  0.00     0.139 C
ATOM     40  C   UNL     1      25.154   8.429 -10.619  1.00  0.00     0.159 C
ATOM     41  C   UNL     1      26.533   9.826  -8.591  1.00  0.00     0.141 C
ATOM     42  S   UNL     1      25.069   9.914  -9.616  1.00  0.00     0.157 S
ATOM     43  O   UNL     1      25.199  11.044 -10.518  1.00  0.00    -0.228 OA
ATOM     44  O   UNL     1      23.900   9.791  -8.764  1.00  0.00    -0.228 OA
BRANCH  41  45
ATOM     45  C   UNL     1      27.043  11.183  -8.105  1.00  0.00     0.102 C
BRANCH  45  46
ATOM     46  N   UNL     1      25.948  11.990  -7.538  1.00  0.00    -0.315 NA
ATOM     47  H   UNL     1      25.056  11.559  -7.784  1.00  0.00     0.122 HD
BRANCH  46  48
ATOM     48  C   UNL     1      25.975  13.377  -8.018  1.00  0.00     0.090 C
ATOM     49  G   UNL     1      25.567  14.410  -6.959  1.00  0.00     0.000 C
ENDBRANCH  46  48
ENDBRANCH  45  46
ENDBRANCH  41  45
ENDBRANCH  36  37
ENDBRANCH  10  31
TORSDOF 2
ENDMDL
MODEL 5
REMARK VINA RESULT:      -8.9      1.542      2.018
REMARK SMILES NC(=O)c1cnc2c3c1[nH]c1cc(ccc13)-c1ccc(nn1)N1CCS(=O)(=O)[C@H](CNCC3(CC3)[C@H](C(F)(F)F)N2)C1
REMARK SMILES IDX 4 1 5 2 6 3 7 4 8 5 9 6 10 7 11 8 12 9 13 10 14 11 15 12
REMARK SMILES IDX 16 13 2 15 1 16 3 17 41 20 36 22 33 23 34 24 35 25 37 27
REMARK SMILES IDX 38 28 39 29 40 30 17 31 18 32 22 33 19 34 21 35 20 36 23 37
REMARK SMILES IDX 24 38 42 39 25 40 29 41 26 42 27 43 28 44 30 45 31 46 32 48
REMARK H PARENT 10 14 1 18 1 19 41 21 31 47
REMARK Flexibility Score:   57.900
ROOT
ATOM      1  C   UNL     1      33.684  10.459  -2.660  1.00  0.00     0.082 A
ATOM      2  C   UNL     1      33.762  11.820  -2.912  1.00  0.00     0.129 A
ATOM      3  N   UNL     1      32.943  12.513  -3.745  1.00  0.00    -0.238 NA
ATOM      4  C   UNL     1      31.958  11.865  -4.412  1.00  0.00     0.136 A
ATOM      5  C   UNL     1      31.726  10.502  -4.131  1.00  0.00     0.051 A
ATOM      6  C   UNL     1      32.615   9.822  -3.296  1.00  0.00     0.065 A
ATOM      7  N   UNL     1      32.230   8.498  -3.280  1.00  0.00    -0.354 N
ATOM      8  C   UNL     1      31.121   8.300  -4.066  1.00  0.00     0.047 A
ATOM      9  C   UNL     1      30.470   7.114  -4.440  1.00  0.00     0.037 A
ATOM     10  C   UNL     1      29.380   7.207  -5.326  1.00  0.00     0.004 A
ATOM     11  C   UNL     1      28.894   8.484  -5.673  1.00  0.00     0.011 A
ATOM     12  C   UNL     1      29.551   9.652  -5.282  1.00  0.00     0.012 A
ATOM     13  C   UNL     1      30.730   9.554  -4.527  1.00  0.00     0.011 A
ATOM     14  H   UNL     1      32.733   7.777  -2.773  1.00  0.00     0.167 HD
ENDROOT
BRANCH   1  15
ATOM     15  C   UNL     1      34.606   9.702  -1.787  1.00  0.00     0.252 C
ATOM     16  N   UNL     1      35.526  10.388  -1.046  1.00  0.00    -0.365 N
ATOM     17  O   UNL     1      34.564   8.476  -1.741  1.00  0.00    -0.269 OA
ATOM     18  H   UNL     1      35.674  11.385  -1.064  1.00  0.00     0.159 HD
ATOM     19  H   UNL     1      36.146   9.836  -0.466  1.00  0.00     0.159 HD
ENDBRANCH   1  15
BRANCH   4  20
ATOM     20  N   UNL     1      31.235  12.620  -5.323  1.00  0.00    -0.358 N
ATOM     21  H   UNL     1      30.342  12.151  -5.459  1.00  0.00     0.162 HD
BRANCH  20  22
ATOM     22  C   UNL     1      31.015  14.067  -5.008  1.00  0.00     0.194 C
BRANCH  22  23
ATOM     23  C   UNL     1      29.490  14.381  -4.926  1.00  0.00     0.012 C
ATOM     24  C   UNL     1      28.573  13.699  -5.944  1.00  0.00     0.011 C
ATOM     25  C   UNL     1      28.588  13.209  -4.529  1.00  0.00     0.011 C
ATOM     26  G   UNL     1      29.137  15.761  -4.357  1.00  0.00     0.000 C
ENDBRANCH  22  23
BRANCH  22  27
ATOM     27  C   UNL     1      31.846  15.139  -5.777  1.00  0.00     0.409 C
ATOM     28  F   UNL     1      31.105  15.909  -6.603  1.00  0.00    -0.169 F
ATOM     29  F   UNL     1      32.453  15.981  -4.897  1.00  0.00    -0.169 F
ATOM     30  F   UNL     1      32.846  14.585  -6.504  1.00  0.00    -0.169 F
ENDBRANCH  22  27
ENDBRANCH  20  22
ENDBRANCH   4  20
BRANCH  10  31
ATOM     31  C   UNL     1      28.936   6.043  -6.116  1.00  0.00     0.093 A
ATOM     32  C   UNL     1      27.769   5.348  -5.843  1.00  0.00     0.035 A
ATOM     33  N   UNL     1      29.447   6.022  -7.362  1.00  0.00    -0.148 NA
ATOM     34  C   UNL     1      26.956   4.993  -6.919  1.00  0.00     0.051 A
ATOM     35  N   UNL     1      28.646   5.669  -8.398  1.00  0.00    -0.132 NA
ATOM     36  C   UNL     1      27.340   5.401  -8.189  1.00  0.00     0.151 A
BRANCH  36  37
ATOM     37  N   UNL     1      26.411   5.902  -9.127  1.00  0.00    -0.353 N
ATOM     38  C   UNL     1      24.975   5.597  -9.006  1.00  0.00     0.134 C
ATOM     39  C   UNL     1      26.774   7.290  -9.527  1.00  0.00     0.139 C
ATOM     40  C   UNL     1      24.110   6.614  -9.733  1.00  0.00     0.159 C
ATOM     41  C   UNL     1      26.086   8.242  -8.546  1.00  0.00     0.141 C
ATOM     42  S   UNL     1      24.361   8.241  -9.022  1.00  0.00     0.157 S
ATOM     43  O   UNL     1      24.173   9.206 -10.091  1.00  0.00    -0.228 OA
ATOM     44  O   UNL     1      23.550   8.316  -7.820  1.00  0.00    -0.228 OA
BRANCH  41  45
ATOM     45  C   UNL     1      26.724   9.630  -8.492  1.00  0.00     0.102 C
BRANCH  45  46
ATOM     46  N   UNL     1      25.714  10.668  -8.221  1.00  0.00    -0.315 NA
ATOM     47  H   UNL     1      24.929  10.545  -8.862  1.00  0.00     0.122 HD
BRANCH  46  48
ATOM     48  C   UNL     1      26.259  12.023  -8.363  1.00  0.00     0.090 C
ATOM     49  G   UNL     1      25.246  13.137  -8.064  1.00  0.00     0.000 C
ENDBRANCH  46  48
ENDBRANCH  45  46
ENDBRANCH  41  45
ENDBRANCH  36  37
ENDBRANCH  10  31
TORSDOF 2
ENDMDL
MODEL 6
REMARK VINA RESULT:      -8.9      3.701      7.457
REMARK SMILES NC(=O)c1cnc2c3c1[nH]c1cc(ccc13)-c1ccc(nn1)N1CCS(=O)(=O)[C@H](CNCC3(CC3)[C@H](C(F)(F)F)N2)C1
REMARK SMILES IDX 4 1 5 2 6 3 7 4 8 5 9 6 10 7 11 8 12 9 13 10 14 11 15 12
REMARK SMILES IDX 16 13 2 15 1 16 3 17 41 20 36 22 33 23 34 24 35 25 37 27
REMARK SMILES IDX 38 28 39 29 40 30 17 31 18 32 22 33 19 34 21 35 20 36 23 37
REMARK SMILES IDX 24 38 42 39 25 40 29 41 26 42 27 43 28 44 30 45 31 46 32 48
REMARK H PARENT 10 14 1 18 1 19 41 21 31 47
REMARK Flexibility Score:   57.900
ROOT
ATOM      1  C   UNL     1      32.880   9.373  -2.556  1.00  0.00     0.082 A
ATOM      2  C   UNL     1      32.055   8.394  -3.091  1.00  0.00     0.129 A
ATOM      3  N   UNL     1      31.152   8.586  -4.087  1.00  0.00    -0.238 NA
ATOM      4  C   UNL     1      31.001   9.817  -4.629  1.00  0.00     0.136 A
ATOM      5  C   UNL     1      31.876  10.850  -4.232  1.00  0.00     0.051 A
ATOM      6  C   UNL     1      32.765  10.618  -3.181  1.00  0.00     0.065 A
ATOM      7  N   UNL     1      33.414  11.807  -2.922  1.00  0.00    -0.354 N
ATOM      8  C   UNL     1      32.983  12.795  -3.773  1.00  0.00     0.047 A
ATOM      9  C   UNL     1      33.269  14.170  -3.792  1.00  0.00     0.037 A
ATOM     10  C   UNL     1      32.622  14.969  -4.753  1.00  0.00     0.004 A
ATOM     11  C   UNL     1      31.843  14.341  -5.745  1.00  0.00     0.011 A
ATOM     12  C   UNL     1      31.578  12.971  -5.713  1.00  0.00     0.012 A
ATOM     13  C   UNL     1      32.096  12.197  -4.664  1.00  0.00     0.011 A
ATOM     14  H   UNL     1      34.092  11.921  -2.177  1.00  0.00     0.167 HD
ENDROOT
BRANCH   1  15
ATOM     15  C   UNL     1      33.830   9.168  -1.443  1.00  0.00     0.252 C
ATOM     16  N   UNL     1      35.159   9.030  -1.725  1.00  0.00    -0.365 N
ATOM     17  O   UNL     1      33.433   9.102  -0.283  1.00  0.00    -0.269 OA
ATOM     18  H   UNL     1      35.568   9.011  -2.647  1.00  0.00     0.159 HD
ATOM     19  H   UNL     1      35.779   8.884  -0.937  1.00  0.00     0.159 HD
ENDBRANCH   1  15
BRANCH   4  20
ATOM     20  N   UNL     1      29.985   9.956  -5.564  1.00  0.00    -0.358 N
ATOM     21  H   UNL     1      30.410   9.866  -6.484  1.00  0.00     0.162 HD
BRANCH  20  22
ATOM     22  C   UNL     1      28.805   9.042  -5.448  1.00  0.00     0.194 C
BRANCH  22  23
ATOM     23  C   UNL     1      28.955   7.834  -6.422  1.00  0.00     0.012 C
ATOM     24  C   UNL     1      29.528   6.534  -5.852  1.00  0.00     0.011 C
ATOM     25  C   UNL     1      28.060   6.626  -6.131  1.00  0.00     0.011 C
ATOM     26  G   UNL     1      29.174   8.206  -7.895  1.00  0.00     0.000 C
ENDBRANCH  22  23
BRANCH  22  27
ATOM     27  C   UNL     1      27.374   9.661  -5.415  1.00  0.00     0.409 C
ATOM     28  F   UNL     1      26.795   9.751  -6.633  1.00  0.00    -0.169 F
ATOM     29  F   UNL     1      26.552   8.898  -4.645  1.00  0.00    -0.169 F
ATOM     30  F   UNL     1      27.365  10.894  -4.854  1.00  0.00    -0.169 F
ENDBRANCH  22  27
ENDBRANCH  20  22
ENDBRANCH   4  20
BRANCH  10  31
ATOM     31  C   UNL     1      32.496  16.428  -4.573  1.00  0.00     0.093 A
ATOM     32  C   UNL     1      32.616  17.328  -5.618  1.00  0.00     0.035 A
ATOM     33  N   UNL     1      31.787  16.769  -3.479  1.00  0.00    -0.148 NA
ATOM     34  C   UNL     1      31.691  18.371  -5.689  1.00  0.00     0.051 A
ATOM     35  N   UNL     1      30.896  17.787  -3.561  1.00  0.00    -0.132 NA
ATOM     36  C   UNL     1      30.681  18.412  -4.738  1.00  0.00     0.151 A
BRANCH  36  37
ATOM     37  N   UNL     1      29.348  18.729  -5.075  1.00  0.00    -0.353 N
ATOM     38  C   UNL     1      29.031  19.433  -6.330  1.00  0.00     0.134 C
ATOM     39  C   UNL     1      28.433  17.624  -4.674  1.00  0.00     0.139 C
ATOM     40  C   UNL     1      27.594  19.208  -6.768  1.00  0.00     0.159 C
ATOM     41  C   UNL     1      28.353  16.649  -5.852  1.00  0.00     0.141 C
ATOM     42  S   UNL     1      27.316  17.461  -7.064  1.00  0.00     0.157 S
ATOM     43  O   UNL     1      25.926  17.191  -6.744  1.00  0.00    -0.228 OA
ATOM     44  O   UNL     1      27.833  17.161  -8.387  1.00  0.00    -0.228 OA
BRANCH  41  45
ATOM     45  C   UNL     1      27.880  15.250  -5.455  1.00  0.00     0.102 C
BRANCH  45  46
ATOM     46  N   UNL     1      26.866  15.316  -4.387  1.00  0.00    -0.315 NA
ATOM     47  H   UNL     1      27.271  14.957  -3.522  1.00  0.00     0.122 HD
BRANCH  46  48
ATOM     48  C   UNL     1      25.659  14.552  -4.722  1.00  0.00     0.090 C
ATOM     49  G   UNL     1      25.774  13.739  -6.018  1.00  0.00     0.000 C
ENDBRANCH  46  48
ENDBRANCH  45  46
ENDBRANCH  41  45
ENDBRANCH  36  37
ENDBRANCH  10  31
TORSDOF 2
ENDMDL
MODEL 7
REMARK VINA RESULT:      -8.8      1.822      2.462
REMARK SMILES NC(=O)c1cnc2c3c1[nH]c1cc(ccc13)-c1ccc(nn1)N1CCS(=O)(=O)[C@H](CNCC3(CC3)[C@H](C(F)(F)F)N2)C1
REMARK SMILES IDX 4 1 5 2 6 3 7 4 8 5 9 6 10 7 11 8 12 9 13 10 14 11 15 12
REMARK SMILES IDX 16 13 2 15 1 16 3 17 41 20 36 22 33 23 34 24 35 25 37 27
REMARK SMILES IDX 38 28 39 29 40 30 17 31 18 32 22 33 19 34 21 35 20 36 23 37
REMARK SMILES IDX 24 38 42 39 25 40 29 41 26 42 27 43 28 44 30 45 31 46 32 48
REMARK H PARENT 10 14 1 18 1 19 41 21 31 47
REMARK Flexibility Score:   57.900
ROOT
ATOM      1  C   UNL     1      33.801  10.462  -2.564  1.00  0.00     0.082 A
ATOM      2  C   UNL     1      33.916  11.813  -2.858  1.00  0.00     0.129 A
ATOM      3  N   UNL     1      33.140  12.493  -3.741  1.00  0.00    -0.238 NA
ATOM      4  C   UNL     1      32.167  11.843  -4.421  1.00  0.00     0.136 A
ATOM      5  C   UNL     1      31.897  10.495  -4.105  1.00  0.00     0.051 A
ATOM      6  C   UNL     1      32.742   9.825  -3.217  1.00  0.00     0.065 A
ATOM      7  N   UNL     1      32.330   8.510  -3.171  1.00  0.00    -0.354 N
ATOM      8  C   UNL     1      31.246   8.308  -3.990  1.00  0.00     0.047 A
ATOM      9  C   UNL     1      30.584   7.123  -4.348  1.00  0.00     0.037 A
ATOM     10  C   UNL     1      29.527   7.208  -5.275  1.00  0.00     0.004 A
ATOM     11  C   UNL     1      29.080   8.481  -5.680  1.00  0.00     0.011 A
ATOM     12  C   UNL     1      29.747   9.648  -5.305  1.00  0.00     0.012 A
ATOM     13  C   UNL     1      30.897   9.553  -4.506  1.00  0.00     0.011 A
ATOM     14  H   UNL     1      32.800   7.798  -2.624  1.00  0.00     0.167 HD
ENDROOT
BRANCH   1  15
ATOM     15  C   UNL     1      34.676   9.718  -1.634  1.00  0.00     0.252 C
ATOM     16  N   UNL     1      35.600  10.407  -0.902  1.00  0.00    -0.365 N
ATOM     17  O   UNL     1      34.593   8.497  -1.534  1.00  0.00    -0.269 OA
ATOM     18  H   UNL     1      35.781  11.398  -0.961  1.00  0.00     0.159 HD
ATOM     19  H   UNL     1      36.187   9.863  -0.281  1.00  0.00     0.159 HD
ENDBRANCH   1  15
BRANCH   4  20
ATOM     20  N   UNL     1      31.491  12.581  -5.382  1.00  0.00    -0.358 N
ATOM     21  H   UNL     1      30.771  11.977  -5.771  1.00  0.00     0.162 HD
BRANCH  20  22
ATOM     22  C   UNL     1      30.899  13.890  -4.963  1.00  0.00     0.194 C
BRANCH  22  23
ATOM     23  C   UNL     1      29.411  13.985  -5.422  1.00  0.00     0.012 C
ATOM     24  C   UNL     1      28.467  12.858  -4.996  1.00  0.00     0.011 C
ATOM     25  C   UNL     1      28.380  14.184  -4.308  1.00  0.00     0.011 C
ATOM     26  G   UNL     1      29.180  14.745  -6.735  1.00  0.00     0.000 C
ENDBRANCH  22  23
BRANCH  22  27
ATOM     27  C   UNL     1      31.720  15.196  -5.190  1.00  0.00     0.409 C
ATOM     28  F   UNL     1      32.696  15.386  -4.276  1.00  0.00    -0.169 F
ATOM     29  F   UNL     1      32.324  15.164  -6.409  1.00  0.00    -0.169 F
ATOM     30  F   UNL     1      30.932  16.298  -5.199  1.00  0.00    -0.169 F
ENDBRANCH  22  27
ENDBRANCH  20  22
ENDBRANCH   4  20
BRANCH  10  31
ATOM     31  C   UNL     1      29.088   6.027  -6.042  1.00  0.00     0.093 A
ATOM     32  C   UNL     1      27.957   5.296  -5.717  1.00  0.00     0.035 A
ATOM     33  N   UNL     1      29.545   6.016  -7.309  1.00  0.00    -0.148 NA
ATOM     34  C   UNL     1      27.110   4.910  -6.756  1.00  0.00     0.051 A
ATOM     35  N   UNL     1      28.712   5.634  -8.308  1.00  0.00    -0.132 NA
ATOM     36  C   UNL     1      27.426   5.325  -8.043  1.00  0.00     0.151 A
BRANCH  36  37
ATOM     37  N   UNL     1      26.443   5.792  -8.941  1.00  0.00    -0.353 N
ATOM     38  C   UNL     1      25.129   6.250  -8.455  1.00  0.00     0.134 C
ATOM     39  C   UNL     1      27.071   6.587 -10.033  1.00  0.00     0.139 C
ATOM     40  C   UNL     1      24.446   7.183  -9.441  1.00  0.00     0.159 C
ATOM     41  C   UNL     1      27.131   8.042  -9.560  1.00  0.00     0.141 C
ATOM     42  S   UNL     1      25.452   8.647  -9.687  1.00  0.00     0.157 S
ATOM     43  O   UNL     1      25.221   9.098 -11.048  1.00  0.00    -0.228 OA
ATOM     44  O   UNL     1      25.196   9.538  -8.570  1.00  0.00    -0.228 OA
BRANCH  41  45
ATOM     45  C   UNL     1      28.163   8.886 -10.309  1.00  0.00     0.102 C
BRANCH  45  46
ATOM     46  N   UNL     1      27.937  10.324 -10.083  1.00  0.00    -0.315 NA
ATOM     47  H   UNL     1      26.950  10.476  -9.871  1.00  0.00     0.122 HD
BRANCH  46  48
ATOM     48  C   UNL     1      28.323  11.135 -11.243  1.00  0.00     0.090 C
ATOM     49  G   UNL     1      27.889  12.604 -11.150  1.00  0.00     0.000 C
ENDBRANCH  46  48
ENDBRANCH  45  46
ENDBRANCH  41  45
ENDBRANCH  36  37
ENDBRANCH  10  31
TORSDOF 2
ENDMDL
MODEL 8
REMARK VINA RESULT:      -8.8      1.441      1.889
REMARK SMILES NC(=O)c1cnc2c3c1[nH]c1cc(ccc13)-c1ccc(nn1)N1CCS(=O)(=O)[C@H](CNCC3(CC3)[C@H](C(F)(F)F)N2)C1
REMARK SMILES IDX 4 1 5 2 6 3 7 4 8 5 9 6 10 7 11 8 12 9 13 10 14 11 15 12
REMARK SMILES IDX 16 13 2 15 1 16 3 17 41 20 36 22 33 23 34 24 35 25 37 27
REMARK SMILES IDX 38 28 39 29 40 30 17 31 18 32 22 33 19 34 21 35 20 36 23 37
REMARK SMILES IDX 24 38 42 39 25 40 29 41 26 42 27 43 28 44 30 45 31 46 32 48
REMARK H PARENT 10 14 1 18 1 19 41 21 31 47
REMARK Flexibility Score:   57.900
ROOT
ATOM      1  C   UNL     1      34.106  10.556  -2.395  1.00  0.00     0.082 A
ATOM      2  C   UNL     1      34.514  11.880  -2.468  1.00  0.00     0.129 A
ATOM      3  N   UNL     1      33.896  12.853  -3.186  1.00  0.00    -0.238 NA
ATOM      4  C   UNL     1      32.792  12.556  -3.911  1.00  0.00     0.136 A
ATOM      5  C   UNL     1      32.234  11.265  -3.806  1.00  0.00     0.051 A
ATOM      6  C   UNL     1      32.922  10.286  -3.086  1.00  0.00     0.065 A
ATOM      7  N   UNL     1      32.229   9.103  -3.236  1.00  0.00    -0.354 N
ATOM      8  C   UNL     1      31.114   9.285  -4.018  1.00  0.00     0.047 A
ATOM      9  C   UNL     1      30.199   8.351  -4.531  1.00  0.00     0.037 A
ATOM     10  C   UNL     1      29.174   8.821  -5.373  1.00  0.00     0.004 A
ATOM     11  C   UNL     1      29.015  10.211  -5.540  1.00  0.00     0.011 A
ATOM     12  C   UNL     1      29.931  11.123  -5.013  1.00  0.00     0.012 A
ATOM     13  C   UNL     1      31.043  10.646  -4.303  1.00  0.00     0.011 A
ATOM     14  H   UNL     1      32.536   8.223  -2.839  1.00  0.00     0.167 HD
ENDROOT
BRANCH   1  15
ATOM     15  C   UNL     1      34.808   9.491  -1.648  1.00  0.00     0.252 C
ATOM     16  N   UNL     1      35.595   9.837  -0.587  1.00  0.00    -0.365 N
ATOM     17  O   UNL     1      34.705   8.315  -1.985  1.00  0.00    -0.269 OA
ATOM     18  H   UNL     1      35.786  10.777  -0.275  1.00  0.00     0.159 HD
ATOM     19  H   UNL     1      36.066   9.082  -0.105  1.00  0.00     0.159 HD
ENDBRANCH   1  15
BRANCH   4  20
ATOM     20  N   UNL     1      32.283  13.577  -4.700  1.00  0.00    -0.358 N
ATOM     21  H   UNL     1      31.868  13.142  -5.521  1.00  0.00     0.162 HD
BRANCH  20  22
ATOM     22  C   UNL     1      31.310  14.524  -4.069  1.00  0.00     0.194 C
BRANCH  22  23
ATOM     23  C   UNL     1      30.481  15.262  -5.165  1.00  0.00     0.012 C
ATOM     24  C   UNL     1      29.499  14.427  -5.990  1.00  0.00     0.011 C
ATOM     25  C   UNL     1      28.971  15.335  -4.923  1.00  0.00     0.011 C
ATOM     26  G   UNL     1      31.155  16.501  -5.770  1.00  0.00     0.000 C
ENDBRANCH  22  23
BRANCH  22  27
ATOM     27  C   UNL     1      31.800  15.446  -2.911  1.00  0.00     0.409 C
ATOM     28  F   UNL     1      33.023  15.979  -3.124  1.00  0.00    -0.169 F
ATOM     29  F   UNL     1      30.940  16.488  -2.747  1.00  0.00    -0.169 F
ATOM     30  F   UNL     1      31.825  14.800  -1.721  1.00  0.00    -0.169 F
ENDBRANCH  22  27
ENDBRANCH  20  22
ENDBRANCH   4  20
BRANCH  10  31
ATOM     31  C   UNL     1      28.471   7.913  -6.300  1.00  0.00     0.093 A
ATOM     32  C   UNL     1      27.165   8.120  -6.710  1.00  0.00     0.035 A
ATOM     33  N   UNL     1      29.307   7.195  -7.076  1.00  0.00    -0.148 NA
ATOM     34  C   UNL     1      26.870   7.937  -8.061  1.00  0.00     0.051 A
ATOM     35  N   UNL     1      29.005   7.022  -8.386  1.00  0.00    -0.132 NA
ATOM     36  C   UNL     1      27.912   7.609  -8.918  1.00  0.00     0.151 A
BRANCH  36  37
ATOM     37  N   UNL     1      28.039   8.189 -10.198  1.00  0.00    -0.353 N
ATOM     38  C   UNL     1      27.292   7.654 -11.349  1.00  0.00     0.134 C
ATOM     39  C   UNL     1      28.138   9.672 -10.090  1.00  0.00     0.139 C
ATOM     40  C   UNL     1      27.129   8.682 -12.456  1.00  0.00     0.159 C
ATOM     41  C   UNL     1      26.713  10.228 -10.132  1.00  0.00     0.141 C
ATOM     42  S   UNL     1      26.206  10.093 -11.843  1.00  0.00     0.157 S
ATOM     43  O   UNL     1      26.683  11.259 -12.564  1.00  0.00    -0.228 OA
ATOM     44  O   UNL     1      24.799   9.736 -11.881  1.00  0.00    -0.228 OA
BRANCH  41  45
ATOM     45  C   UNL     1      26.589  11.635  -9.548  1.00  0.00     0.102 C
BRANCH  45  46
ATOM     46  N   UNL     1      27.006  11.662  -8.135  1.00  0.00    -0.315 NA
ATOM     47  H   UNL     1      26.674  10.814  -7.675  1.00  0.00     0.122 HD
BRANCH  46  48
ATOM     48  C   UNL     1      26.493  12.841  -7.428  1.00  0.00     0.090 C
ATOM     49  G   UNL     1      26.541  14.133  -8.254  1.00  0.00     0.000 C
ENDBRANCH  46  48
ENDBRANCH  45  46
ENDBRANCH  41  45
ENDBRANCH  36  37
ENDBRANCH  10  31
TORSDOF 2
ENDMDL
MODEL 9
REMARK VINA RESULT:      -8.7      0.966      1.518
REMARK SMILES NC(=O)c1cnc2c3c1[nH]c1cc(ccc13)-c1ccc(nn1)N1CCS(=O)(=O)[C@H](CNCC3(CC3)[C@H](C(F)(F)F)N2)C1
REMARK SMILES IDX 4 1 5 2 6 3 7 4 8 5 9 6 10 7 11 8 12 9 13 10 14 11 15 12
REMARK SMILES IDX 16 13 2 15 1 16 3 17 41 20 36 22 33 23 34 24 35 25 37 27
REMARK SMILES IDX 38 28 39 29 40 30 17 31 18 32 22 33 19 34 21 35 20 36 23 37
REMARK SMILES IDX 24 38 42 39 25 40 29 41 26 42 27 43 28 44 30 45 31 46 32 48
REMARK H PARENT 10 14 1 18 1 19 41 21 31 47
REMARK Flexibility Score:   57.900
ROOT
ATOM      1  C   UNL     1      34.138  10.949  -2.348  1.00  0.00     0.082 A
ATOM      2  C   UNL     1      34.376  12.315  -2.381  1.00  0.00     0.129 A
ATOM      3  N   UNL     1      33.636  13.225  -3.066  1.00  0.00    -0.238 NA
ATOM      4  C   UNL     1      32.574  12.814  -3.797  1.00  0.00     0.136 A
ATOM      5  C   UNL     1      32.183  11.460  -3.732  1.00  0.00     0.051 A
ATOM      6  C   UNL     1      32.993  10.554  -3.045  1.00  0.00     0.065 A
ATOM      7  N   UNL     1      32.453   9.298  -3.229  1.00  0.00    -0.354 N
ATOM      8  C   UNL     1      31.319   9.362  -4.003  1.00  0.00     0.047 A
ATOM      9  C   UNL     1      30.526   8.337  -4.542  1.00  0.00     0.037 A
ATOM     10  C   UNL     1      29.445   8.700  -5.367  1.00  0.00     0.004 A
ATOM     11  C   UNL     1      29.112  10.063  -5.490  1.00  0.00     0.011 A
ATOM     12  C   UNL     1      29.909  11.067  -4.938  1.00  0.00     0.012 A
ATOM     13  C   UNL     1      31.076  10.712  -4.245  1.00  0.00     0.011 A
ATOM     14  H   UNL     1      32.871   8.452  -2.860  1.00  0.00     0.167 HD
ENDROOT
BRANCH   1  15
ATOM     15  C   UNL     1      34.973   9.959  -1.636  1.00  0.00     0.252 C
ATOM     16  N   UNL     1      36.007  10.401  -0.861  1.00  0.00    -0.365 N
ATOM     17  O   UNL     1      34.758   8.756  -1.754  1.00  0.00    -0.269 OA
ATOM     18  H   UNL     1      36.295  11.361  -0.753  1.00  0.00     0.159 HD
ATOM     19  H   UNL     1      36.561   9.693  -0.395  1.00  0.00     0.159 HD
ENDBRANCH   1  15
BRANCH   4  20
ATOM     20  N   UNL     1      31.936  13.787  -4.553  1.00  0.00    -0.358 N
ATOM     21  H   UNL     1      31.562  13.326  -5.380  1.00  0.00     0.162 HD
BRANCH  20  22
ATOM     22  C   UNL     1      30.869  14.597  -3.886  1.00  0.00     0.194 C
BRANCH  22  23
ATOM     23  C   UNL     1      29.635  14.751  -4.826  1.00  0.00     0.012 C
ATOM     24  C   UNL     1      29.681  15.864  -5.875  1.00  0.00     0.011 C
ATOM     25  C   UNL     1      29.881  14.445  -6.306  1.00  0.00     0.011 C
ATOM     26  G   UNL     1      28.297  14.294  -4.229  1.00  0.00     0.000 C
ENDBRANCH  22  23
BRANCH  22  27
ATOM     27  C   UNL     1      31.272  15.907  -3.142  1.00  0.00     0.409 C
ATOM     28  F   UNL     1      32.370  16.503  -3.654  1.00  0.00    -0.169 F
ATOM     29  F   UNL     1      30.262  16.815  -3.214  1.00  0.00    -0.169 F
ATOM     30  F   UNL     1      31.485  15.697  -1.821  1.00  0.00    -0.169 F
ENDBRANCH  22  27
ENDBRANCH  20  22
ENDBRANCH   4  20
BRANCH  10  31
ATOM     31  C   UNL     1      28.856   7.740  -6.320  1.00  0.00     0.093 A
ATOM     32  C   UNL     1      27.521   7.371  -6.289  1.00  0.00     0.035 A
ATOM     33  N   UNL     1      29.545   7.645  -7.474  1.00  0.00    -0.148 NA
ATOM     34  C   UNL     1      26.836   7.303  -7.502  1.00  0.00     0.051 A
ATOM     35  N   UNL     1      28.865   7.575  -8.645  1.00  0.00    -0.132 NA
ATOM     36  C   UNL     1      27.518   7.657  -8.657  1.00  0.00     0.151 A
BRANCH  36  37
ATOM     37  N   UNL     1      26.920   8.436  -9.671  1.00  0.00    -0.353 N
ATOM     38  C   UNL     1      25.564   8.131 -10.159  1.00  0.00     0.134 C
ATOM     39  C   UNL     1      27.264   9.874  -9.493  1.00  0.00     0.139 C
ATOM     40  C   UNL     1      24.904   9.335 -10.811  1.00  0.00     0.159 C
ATOM     41  C   UNL     1      26.197  10.489  -8.584  1.00  0.00     0.141 C
ATOM     42  S   UNL     1      24.744  10.661  -9.614  1.00  0.00     0.157 S
ATOM     43  O   UNL     1      24.840  11.911 -10.348  1.00  0.00    -0.228 OA
ATOM     44  O   UNL     1      23.571  10.376  -8.809  1.00  0.00    -0.228 OA
BRANCH  41  45
ATOM     45  C   UNL     1      26.645  11.784  -7.905  1.00  0.00     0.102 C
BRANCH  45  46
ATOM     46  N   UNL     1      25.494  12.657  -7.616  1.00  0.00    -0.315 NA
ATOM     47  H   UNL     1      25.124  13.021  -8.496  1.00  0.00     0.122 HD
BRANCH  46  48
ATOM     48  C   UNL     1      25.851  13.771  -6.731  1.00  0.00     0.090 C
ATOM     49  G   UNL     1      26.302  15.037  -7.473  1.00  0.00     0.000 C
ENDBRANCH  46  48
ENDBRANCH  45  46
ENDBRANCH  41  45
ENDBRANCH  36  37
ENDBRANCH  10  31
TORSDOF 2
ENDMDL
