MODEL 1
REMARK VINA RESULT:      -7.1      0.000      0.000
REMARK SMILES C1=C2\CCC[C@H]3CCN(CCOc4ccc(cc4COC2)Nc2nccc(n2)-c2ccc(s2)COC/1)C3
REMARK SMILES IDX 13 1 14 2 15 3 16 4 17 5 18 6 19 7 20 8 21 9 2 10 1 11 3 13
REMARK SMILES IDX 4 14 12 16 11 17 10 18 9 19 8 20 37 21 7 22 6 23 5 24 22 26
REMARK SMILES IDX 23 28 24 29 28 30 25 31 27 32 26 33 29 34 30 35 33 36 31 37
REMARK SMILES IDX 32 38 34 39 35 40 36 41
REMARK H PARENT 22 27
REMARK Flexibility Score:   91.800
ROOT
ATOM      1  C   UNL     1      27.833  16.065  -6.064  1.00  0.00     0.125 A
ATOM      2  C   UNL     1      28.458  15.382  -5.013  1.00  0.00     0.049 A
ATOM      3  C   UNL     1      28.125  14.060  -4.710  1.00  0.00     0.030 A
ATOM      4  C   UNL     1      27.186  13.377  -5.480  1.00  0.00     0.042 A
ATOM      5  C   UNL     1      26.537  14.081  -6.500  1.00  0.00     0.036 A
ATOM      6  C   UNL     1      26.827  15.433  -6.803  1.00  0.00     0.022 A
ENDROOT
BRANCH   6   7
ATOM      7  C   UNL     1      26.071  16.036  -7.965  1.00  0.00     0.200 C
BRANCH   7   8
ATOM      8  O   UNL     1      26.793  16.106  -9.192  1.00  0.00    -0.372 OA
BRANCH   8   9
ATOM      9  C   UNL     1      26.110  15.466 -10.261  1.00  0.00     0.191 C
BRANCH   9  10
ATOM     10  C   UNL     1      27.097  14.733 -11.146  1.00  0.00    -0.046 C
ATOM     11  C   UNL     1      28.149  15.410 -11.650  1.00  0.00     0.003 C
ATOM     12  G   UNL     1      29.083  14.993 -12.739  1.00  0.00     0.000 C
BRANCH  10  13
ATOM     13  C   UNL     1      26.741  13.298 -11.483  1.00  0.00     0.033 C
BRANCH  13  14
ATOM     14  C   UNL     1      25.887  12.659 -10.378  1.00  0.00     0.005 C
ATOM     15  G   UNL     1      26.661  11.781  -9.379  1.00  0.00     0.000 C
ENDBRANCH  13  14
ENDBRANCH  10  13
ENDBRANCH   9  10
ENDBRANCH   8   9
ENDBRANCH   7   8
ENDBRANCH   6   7
BRANCH   1  16
ATOM     16  O   UNL     1      28.461  17.225  -6.410  1.00  0.00    -0.492 OA
BRANCH  16  17
ATOM     17  C   UNL     1      29.025  18.011  -5.362  1.00  0.00     0.245 C
BRANCH  17  18
ATOM     18  C   UNL     1      30.508  18.330  -5.704  1.00  0.00     0.126 C
BRANCH  18  19
ATOM     19  N   UNL     1      31.488  17.411  -5.125  1.00  0.00    -0.300 NA
ATOM     20  C   UNL     1      31.865  16.271  -5.954  1.00  0.00     0.085 C
ATOM     21  C   UNL     1      31.133  16.861  -3.824  1.00  0.00     0.088 C
ATOM     22  C   UNL     1      32.496  15.280  -4.961  1.00  0.00     0.020 C
ATOM     23  C   UNL     1      32.312  15.932  -3.585  1.00  0.00     0.004 C
BRANCH  23  24
ATOM     24  C   UNL     1      32.131  14.956  -2.418  1.00  0.00     0.005 C
ATOM     25  G   UNL     1      31.046  15.360  -1.404  1.00  0.00     0.000 C
ENDBRANCH  23  24
ENDBRANCH  18  19
ENDBRANCH  17  18
ENDBRANCH  16  17
ENDBRANCH   1  16
BRANCH   4  26
ATOM     26  N   UNL     1      27.013  12.002  -5.301  1.00  0.00    -0.324 N
ATOM     27  H   UNL     1      26.179  11.681  -4.835  1.00  0.00     0.170 HD
BRANCH  26  28
ATOM     28  C   UNL     1      27.894  10.947  -5.526  1.00  0.00     0.227 A
ATOM     29  N   UNL     1      27.500  10.048  -6.442  1.00  0.00    -0.221 NA
ATOM     30  N   UNL     1      29.020  10.818  -4.806  1.00  0.00    -0.212 NA
ATOM     31  C   UNL     1      28.295   8.981  -6.642  1.00  0.00     0.117 A
ATOM     32  C   UNL     1      29.771   9.717  -5.010  1.00  0.00     0.086 A
ATOM     33  C   UNL     1      29.455   8.760  -5.947  1.00  0.00     0.050 A
BRANCH  32  34
ATOM     34  C   UNL     1      30.966   9.592  -4.169  1.00  0.00     0.053 A
ATOM     35  C   UNL     1      31.399   8.510  -3.424  1.00  0.00     0.022 A
ATOM     36  S   UNL     1      32.020  10.932  -3.967  1.00  0.00    -0.136 S
ATOM     37  C   UNL     1      32.622   8.770  -2.739  1.00  0.00     0.018 A
ATOM     38  C   UNL     1      33.099  10.044  -2.973  1.00  0.00     0.031 A
BRANCH  38  39
ATOM     39  C   UNL     1      34.376  10.668  -2.484  1.00  0.00     0.207 C
BRANCH  39  40
ATOM     40  O   UNL     1      34.178  12.087  -2.414  1.00  0.00    -0.372 OA
BRANCH  40  41
ATOM     41  C   UNL     1      35.296  12.813  -1.884  1.00  0.00     0.188 C
ATOM     42  G   UNL     1      35.501  14.071  -2.663  1.00  0.00     0.000 C
ENDBRANCH  40  41
ENDBRANCH  39  40
ENDBRANCH  38  39
ENDBRANCH  32  34
ENDBRANCH  26  28
ENDBRANCH   4  26
TORSDOF 0
ENDMDL
MODEL 2
REMARK VINA RESULT:      -7.0      2.751      7.118
REMARK SMILES C1=C2\CCC[C@H]3CCN(CCOc4ccc(cc4COC2)Nc2nccc(n2)-c2ccc(s2)COC/1)C3
REMARK SMILES IDX 13 1 14 2 15 3 16 4 17 5 18 6 19 7 20 8 21 9 2 10 1 11 3 13
REMARK SMILES IDX 4 14 12 16 11 17 10 18 9 19 8 20 37 21 7 22 6 23 5 24 22 26
REMARK SMILES IDX 23 28 24 29 28 30 25 31 27 32 26 33 29 34 30 35 33 36 31 37
REMARK SMILES IDX 32 38 34 39 35 40 36 41
REMARK H PARENT 22 27
REMARK Flexibility Score:   91.800
ROOT
ATOM      1  C   UNL     1      32.614  14.923  -3.594  1.00  0.00     0.125 A
ATOM      2  C   UNL     1      31.802  14.646  -2.486  1.00  0.00     0.049 A
ATOM      3  C   UNL     1      30.414  14.561  -2.611  1.00  0.00     0.030 A
ATOM      4  C   UNL     1      29.808  14.710  -3.857  1.00  0.00     0.042 A
ATOM      5  C   UNL     1      30.624  15.027  -4.949  1.00  0.00     0.036 A
ATOM      6  C   UNL     1      32.029  15.158  -4.844  1.00  0.00     0.022 A
ENDROOT
BRANCH   6   7
ATOM      7  C   UNL     1      32.772  15.459  -6.126  1.00  0.00     0.200 C
BRANCH   7   8
ATOM      8  O   UNL     1      32.336  16.623  -6.824  1.00  0.00    -0.372 OA
BRANCH   8   9
ATOM      9  C   UNL     1      33.410  17.493  -7.152  1.00  0.00     0.191 C
BRANCH   9  10
ATOM     10  C   UNL     1      33.225  18.832  -6.469  1.00  0.00    -0.046 C
ATOM     11  C   UNL     1      34.035  19.855  -6.808  1.00  0.00     0.003 C
ATOM     12  G   UNL     1      34.227  21.158  -6.101  1.00  0.00     0.000 C
BRANCH  10  13
ATOM     13  C   UNL     1      32.192  18.869  -5.360  1.00  0.00     0.033 C
BRANCH  13  14
ATOM     14  C   UNL     1      30.834  19.371  -5.876  1.00  0.00     0.005 C
ATOM     15  G   UNL     1      29.609  18.861  -5.097  1.00  0.00     0.000 C
ENDBRANCH  13  14
ENDBRANCH  10  13
ENDBRANCH   9  10
ENDBRANCH   8   9
ENDBRANCH   7   8
ENDBRANCH   6   7
BRANCH   1  16
ATOM     16  O   UNL     1      33.939  14.690  -3.371  1.00  0.00    -0.492 OA
BRANCH  16  17
ATOM     17  C   UNL     1      34.283  13.711  -2.391  1.00  0.00     0.245 C
BRANCH  17  18
ATOM     18  C   UNL     1      34.520  12.346  -3.095  1.00  0.00     0.126 C
BRANCH  18  19
ATOM     19  N   UNL     1      33.531  11.311  -2.787  1.00  0.00    -0.300 NA
ATOM     20  C   UNL     1      34.065  10.014  -2.386  1.00  0.00     0.085 C
ATOM     21  C   UNL     1      32.567  11.038  -3.844  1.00  0.00     0.088 C
ATOM     22  C   UNL     1      32.886   9.047  -2.586  1.00  0.00     0.020 C
ATOM     23  C   UNL     1      31.778   9.903  -3.212  1.00  0.00     0.004 C
BRANCH  23  24
ATOM     24  C   UNL     1      30.843   9.161  -4.174  1.00  0.00     0.005 C
ATOM     25  G   UNL     1      31.032   7.635  -4.206  1.00  0.00     0.000 C
ENDBRANCH  23  24
ENDBRANCH  18  19
ENDBRANCH  17  18
ENDBRANCH  16  17
ENDBRANCH   1  16
BRANCH   4  26
ATOM     26  N   UNL     1      28.450  14.419  -4.005  1.00  0.00    -0.324 N
ATOM     27  H   UNL     1      27.893  14.297  -3.174  1.00  0.00     0.170 HD
BRANCH  26  28
ATOM     28  C   UNL     1      27.716  14.101  -5.146  1.00  0.00     0.227 A
ATOM     29  N   UNL     1      26.883  15.059  -5.584  1.00  0.00    -0.221 NA
ATOM     30  N   UNL     1      27.798  12.884  -5.707  1.00  0.00    -0.212 NA
ATOM     31  C   UNL     1      26.111  14.766  -6.647  1.00  0.00     0.117 A
ATOM     32  C   UNL     1      26.983  12.618  -6.748  1.00  0.00     0.086 A
ATOM     33  C   UNL     1      26.118  13.549  -7.276  1.00  0.00     0.050 A
BRANCH  32  34
ATOM     34  C   UNL     1      27.070  11.262  -7.300  1.00  0.00     0.053 A
ATOM     35  C   UNL     1      26.676  10.800  -8.542  1.00  0.00     0.022 A
ATOM     36  S   UNL     1      27.681   9.978  -6.337  1.00  0.00    -0.136 S
ATOM     37  C   UNL     1      26.933   9.408  -8.716  1.00  0.00     0.018 A
ATOM     38  C   UNL     1      27.515   8.834  -7.603  1.00  0.00     0.031 A
BRANCH  38  39
ATOM     39  C   UNL     1      27.986   7.418  -7.420  1.00  0.00     0.207 C
BRANCH  39  40
ATOM     40  O   UNL     1      27.170   6.806  -6.411  1.00  0.00    -0.372 OA
BRANCH  40  41
ATOM     41  C   UNL     1      27.903   6.034  -5.449  1.00  0.00     0.188 C
ATOM     42  G   UNL     1      28.956   5.229  -6.141  1.00  0.00     0.000 C
ENDBRANCH  40  41
ENDBRANCH  39  40
ENDBRANCH  38  39
ENDBRANCH  32  34
ENDBRANCH  26  28
ENDBRANCH   4  26
TORSDOF 0
ENDMDL
MODEL 3
REMARK VINA RESULT:      -7.0      2.869      9.861
REMARK SMILES C1=C2\CCC[C@H]3CCN(CCOc4ccc(cc4COC2)Nc2nccc(n2)-c2ccc(s2)COC/1)C3
REMARK SMILES IDX 13 1 14 2 15 3 16 4 17 5 18 6 19 7 20 8 21 9 2 10 1 11 3 13
REMARK SMILES IDX 4 14 12 16 11 17 10 18 9 19 8 20 37 21 7 22 6 23 5 24 22 26
REMARK SMILES IDX 23 28 24 29 28 30 25 31 27 32 26 33 29 34 30 35 33 36 31 37
REMARK SMILES IDX 32 38 34 39 35 40 36 41
REMARK H PARENT 22 27
REMARK Flexibility Score:   91.800
ROOT
ATOM      1  C   UNL     1      30.663  14.492  -3.743  1.00  0.00     0.125 A
ATOM      2  C   UNL     1      30.081  15.587  -4.395  1.00  0.00     0.049 A
ATOM      3  C   UNL     1      30.820  16.737  -4.677  1.00  0.00     0.030 A
ATOM      4  C   UNL     1      32.173  16.803  -4.350  1.00  0.00     0.042 A
ATOM      5  C   UNL     1      32.735  15.721  -3.662  1.00  0.00     0.036 A
ATOM      6  C   UNL     1      31.999  14.559  -3.329  1.00  0.00     0.022 A
ENDROOT
BRANCH   6   7
ATOM      7  C   UNL     1      32.762  13.460  -2.625  1.00  0.00     0.200 C
BRANCH   7   8
ATOM      8  O   UNL     1      33.607  12.674  -3.461  1.00  0.00    -0.372 OA
BRANCH   8   9
ATOM      9  C   UNL     1      32.968  11.489  -3.918  1.00  0.00     0.191 C
BRANCH   9  10
ATOM     10  C   UNL     1      33.197  10.360  -2.935  1.00  0.00    -0.046 C
ATOM     11  C   UNL     1      34.303  10.380  -2.164  1.00  0.00     0.003 C
ATOM     12  G   UNL     1      34.877   9.275  -1.338  1.00  0.00     0.000 C
BRANCH  10  13
ATOM     13  C   UNL     1      32.192   9.226  -2.987  1.00  0.00     0.033 C
BRANCH  13  14
ATOM     14  C   UNL     1      30.874   9.676  -3.637  1.00  0.00     0.005 C
ATOM     15  G   UNL     1      30.389   8.799  -4.805  1.00  0.00     0.000 C
ENDBRANCH  13  14
ENDBRANCH  10  13
ENDBRANCH   9  10
ENDBRANCH   8   9
ENDBRANCH   7   8
ENDBRANCH   6   7
BRANCH   1  16
ATOM     16  O   UNL     1      29.906  13.359  -3.799  1.00  0.00    -0.492 OA
BRANCH  16  17
ATOM     17  C   UNL     1      29.658  12.792  -5.085  1.00  0.00     0.245 C
BRANCH  17  18
ATOM     18  C   UNL     1      28.298  12.040  -5.056  1.00  0.00     0.126 C
BRANCH  18  19
ATOM     19  N   UNL     1      27.242  12.639  -5.874  1.00  0.00    -0.300 NA
ATOM     20  C   UNL     1      26.930  11.951  -7.122  1.00  0.00     0.085 C
ATOM     21  C   UNL     1      27.446  14.037  -6.227  1.00  0.00     0.088 C
ATOM     22  C   UNL     1      26.177  13.005  -7.951  1.00  0.00     0.020 C
ATOM     23  C   UNL     1      26.229  14.282  -7.103  1.00  0.00     0.004 C
BRANCH  23  24
ATOM     24  C   UNL     1      26.265  15.593  -7.896  1.00  0.00     0.005 C
ATOM     25  G   UNL     1      26.155  15.426  -9.422  1.00  0.00     0.000 C
ENDBRANCH  23  24
ENDBRANCH  18  19
ENDBRANCH  17  18
ENDBRANCH  16  17
ENDBRANCH   1  16
BRANCH   4  26
ATOM     26  N   UNL     1      32.948  17.865  -4.820  1.00  0.00    -0.324 N
ATOM     27  H   UNL     1      33.949  17.811  -4.714  1.00  0.00     0.170 HD
BRANCH  26  28
ATOM     28  C   UNL     1      32.566  19.118  -5.297  1.00  0.00     0.227 A
ATOM     29  N   UNL     1      33.512  20.069  -5.250  1.00  0.00    -0.221 NA
ATOM     30  N   UNL     1      31.306  19.351  -5.699  1.00  0.00    -0.212 NA
ATOM     31  C   UNL     1      33.161  21.307  -5.644  1.00  0.00     0.117 A
ATOM     32  C   UNL     1      30.985  20.612  -6.051  1.00  0.00     0.086 A
ATOM     33  C   UNL     1      31.899  21.642  -6.058  1.00  0.00     0.050 A
BRANCH  32  34
ATOM     34  C   UNL     1      29.588  20.834  -6.438  1.00  0.00     0.053 A
ATOM     35  C   UNL     1      28.975  21.999  -6.861  1.00  0.00     0.022 A
ATOM     36  S   UNL     1      28.454  19.548  -6.340  1.00  0.00    -0.136 S
ATOM     37  C   UNL     1      27.592  21.815  -7.157  1.00  0.00     0.018 A
ATOM     38  C   UNL     1      27.176  20.515  -6.953  1.00  0.00     0.031 A
BRANCH  38  39
ATOM     39  C   UNL     1      25.821  19.916  -7.208  1.00  0.00     0.207 C
BRANCH  39  40
ATOM     40  O   UNL     1      25.464  20.190  -8.570  1.00  0.00    -0.372 OA
BRANCH  40  41
ATOM     41  C   UNL     1      26.017  19.268  -9.520  1.00  0.00     0.188 C
ATOM     42  G   UNL     1      26.691  20.018 -10.622  1.00  0.00     0.000 C
ENDBRANCH  40  41
ENDBRANCH  39  40
ENDBRANCH  38  39
ENDBRANCH  32  34
ENDBRANCH  26  28
ENDBRANCH   4  26
TORSDOF 0
ENDMDL
MODEL 4
REMARK VINA RESULT:      -7.0      3.355      9.043
REMARK SMILES C1=C2\CCC[C@H]3CCN(CCOc4ccc(cc4COC2)Nc2nccc(n2)-c2ccc(s2)COC/1)C3
REMARK SMILES IDX 13 1 14 2 15 3 16 4 17 5 18 6 19 7 20 8 21 9 2 10 1 11 3 13
REMARK SMILES IDX 4 14 12 16 11 17 10 18 9 19 8 20 37 21 7 22 6 23 5 24 22 26
REMARK SMILES IDX 23 28 24 29 28 30 25 31 27 32 26 33 29 34 30 35 33 36 31 37
REMARK SMILES IDX 32 38 34 39 35 40 36 41
REMARK H PARENT 22 27
REMARK Flexibility Score:   91.800
ROOT
ATOM      1  C   UNL     1      28.265   7.813  -5.352  1.00  0.00     0.125 A
ATOM      2  C   UNL     1      27.047   8.237  -5.897  1.00  0.00     0.049 A
ATOM      3  C   UNL     1      26.828   9.578  -6.220  1.00  0.00     0.030 A
ATOM      4  C   UNL     1      27.839  10.520  -6.043  1.00  0.00     0.042 A
ATOM      5  C   UNL     1      29.037  10.094  -5.458  1.00  0.00     0.036 A
ATOM      6  C   UNL     1      29.272   8.749  -5.085  1.00  0.00     0.022 A
ENDROOT
BRANCH   6   7
ATOM      7  C   UNL     1      30.635   8.442  -4.508  1.00  0.00     0.200 C
BRANCH   7   8
ATOM      8  O   UNL     1      30.938   9.096  -3.279  1.00  0.00    -0.372 OA
BRANCH   8   9
ATOM      9  C   UNL     1      32.323   9.045  -2.964  1.00  0.00     0.191 C
BRANCH   9  10
ATOM     10  C   UNL     1      32.951  10.410  -3.150  1.00  0.00    -0.046 C
ATOM     11  C   UNL     1      32.241  11.377  -3.765  1.00  0.00     0.003 C
ATOM     12  G   UNL     1      32.725  12.687  -4.298  1.00  0.00     0.000 C
BRANCH  10  13
ATOM     13  C   UNL     1      34.398  10.535  -2.715  1.00  0.00     0.033 C
BRANCH  13  14
ATOM     14  C   UNL     1      34.827   9.341  -1.847  1.00  0.00     0.005 C
ATOM     15  G   UNL     1      35.109   9.674  -0.372  1.00  0.00     0.000 C
ENDBRANCH  13  14
ENDBRANCH  10  13
ENDBRANCH   9  10
ENDBRANCH   8   9
ENDBRANCH   7   8
ENDBRANCH   6   7
BRANCH   1  16
ATOM     16  O   UNL     1      28.425   6.459  -5.362  1.00  0.00    -0.492 OA
BRANCH  16  17
ATOM     17  C   UNL     1      28.005   5.752  -6.529  1.00  0.00     0.245 C
BRANCH  17  18
ATOM     18  C   UNL     1      29.089   5.902  -7.633  1.00  0.00     0.126 C
BRANCH  18  19
ATOM     19  N   UNL     1      28.680   6.687  -8.799  1.00  0.00    -0.300 NA
ATOM     20  C   UNL     1      29.082   8.090  -8.798  1.00  0.00     0.085 C
ATOM     21  C   UNL     1      27.252   6.680  -9.084  1.00  0.00     0.088 C
ATOM     22  C   UNL     1      28.158   8.743  -9.840  1.00  0.00     0.020 C
ATOM     23  C   UNL     1      27.203   7.624 -10.274  1.00  0.00     0.004 C
BRANCH  23  24
ATOM     24  C   UNL     1      25.795   8.082 -10.669  1.00  0.00     0.005 C
ATOM     25  G   UNL     1      25.192   9.166  -9.758  1.00  0.00     0.000 C
ENDBRANCH  23  24
ENDBRANCH  18  19
ENDBRANCH  17  18
ENDBRANCH  16  17
ENDBRANCH   1  16
BRANCH   4  26
ATOM     26  N   UNL     1      27.683  11.809  -6.559  1.00  0.00    -0.324 N
ATOM     27  H   UNL     1      27.848  11.954  -7.542  1.00  0.00     0.170 HD
BRANCH  26  28
ATOM     28  C   UNL     1      27.476  13.022  -5.905  1.00  0.00     0.227 A
ATOM     29  N   UNL     1      26.211  13.272  -5.532  1.00  0.00    -0.221 NA
ATOM     30  N   UNL     1      28.479  13.900  -5.740  1.00  0.00    -0.212 NA
ATOM     31  C   UNL     1      25.961  14.461  -4.954  1.00  0.00     0.117 A
ATOM     32  C   UNL     1      28.181  15.095  -5.190  1.00  0.00     0.086 A
ATOM     33  C   UNL     1      26.916  15.423  -4.756  1.00  0.00     0.050 A
BRANCH  32  34
ATOM     34  C   UNL     1      29.294  16.042  -5.072  1.00  0.00     0.053 A
ATOM     35  C   UNL     1      30.413  15.975  -4.263  1.00  0.00     0.022 A
ATOM     36  S   UNL     1      29.284  17.499  -5.981  1.00  0.00    -0.136 S
ATOM     37  C   UNL     1      31.284  17.092  -4.437  1.00  0.00     0.018 A
ATOM     38  C   UNL     1      30.812  17.989  -5.374  1.00  0.00     0.031 A
BRANCH  38  39
ATOM     39  C   UNL     1      31.465  19.247  -5.876  1.00  0.00     0.207 C
BRANCH  39  40
ATOM     40  O   UNL     1      32.854  19.197  -5.522  1.00  0.00    -0.372 OA
BRANCH  40  41
ATOM     41  C   UNL     1      33.748  19.181  -6.644  1.00  0.00     0.188 C
ATOM     42  G   UNL     1      34.307  17.807  -6.827  1.00  0.00     0.000 C
ENDBRANCH  40  41
ENDBRANCH  39  40
ENDBRANCH  38  39
ENDBRANCH  32  34
ENDBRANCH  26  28
ENDBRANCH   4  26
TORSDOF 0
ENDMDL
MODEL 5
REMARK VINA RESULT:      -6.8      2.820      6.053
REMARK SMILES C1=C2\CCC[C@H]3CCN(CCOc4ccc(cc4COC2)Nc2nccc(n2)-c2ccc(s2)COC/1)C3
REMARK SMILES IDX 13 1 14 2 15 3 16 4 17 5 18 6 19 7 20 8 21 9 2 10 1 11 3 13
REMARK SMILES IDX 4 14 12 16 11 17 10 18 9 19 8 20 37 21 7 22 6 23 5 24 22 26
REMARK SMILES IDX 23 28 24 29 28 30 25 31 27 32 26 33 29 34 30 35 33 36 31 37
REMARK SMILES IDX 32 38 34 39 35 40 36 41
REMARK H PARENT 22 27
REMARK Flexibility Score:   91.800
ROOT
ATOM      1  C   UNL     1      32.309  15.982  -4.025  1.00  0.00     0.125 A
ATOM      2  C   UNL     1      33.692  16.017  -3.810  1.00  0.00     0.049 A
ATOM      3  C   UNL     1      34.348  14.974  -3.151  1.00  0.00     0.030 A
ATOM      4  C   UNL     1      33.639  13.852  -2.727  1.00  0.00     0.042 A
ATOM      5  C   UNL     1      32.251  13.846  -2.909  1.00  0.00     0.036 A
ATOM      6  C   UNL     1      31.556  14.906  -3.539  1.00  0.00     0.022 A
ENDROOT
BRANCH   6   7
ATOM      7  C   UNL     1      30.063  14.727  -3.700  1.00  0.00     0.200 C
BRANCH   7   8
ATOM      8  O   UNL     1      29.641  14.254  -4.977  1.00  0.00    -0.372 OA
BRANCH   8   9
ATOM      9  C   UNL     1      28.225  14.193  -5.092  1.00  0.00     0.191 C
BRANCH   9  10
ATOM     10  C   UNL     1      27.790  14.693  -6.453  1.00  0.00    -0.046 C
ATOM     11  C   UNL     1      27.466  13.795  -7.405  1.00  0.00     0.003 C
ATOM     12  G   UNL     1      27.277  14.025  -8.870  1.00  0.00     0.000 C
BRANCH  10  13
ATOM     13  C   UNL     1      27.865  16.193  -6.659  1.00  0.00     0.033 C
BRANCH  13  14
ATOM     14  C   UNL     1      27.528  16.954  -5.367  1.00  0.00     0.005 C
ATOM     15  G   UNL     1      28.443  18.150  -5.055  1.00  0.00     0.000 C
ENDBRANCH  13  14
ENDBRANCH  10  13
ENDBRANCH   9  10
ENDBRANCH   8   9
ENDBRANCH   7   8
ENDBRANCH   6   7
BRANCH   1  16
ATOM     16  O   UNL     1      31.872  16.915  -4.919  1.00  0.00    -0.492 OA
BRANCH  16  17
ATOM     17  C   UNL     1      31.892  16.566  -6.302  1.00  0.00     0.245 C
BRANCH  17  18
ATOM     18  C   UNL     1      33.089  17.280  -6.991  1.00  0.00     0.126 C
BRANCH  18  19
ATOM     19  N   UNL     1      33.033  18.743  -6.968  1.00  0.00    -0.300 NA
ATOM     20  C   UNL     1      34.272  19.425  -6.612  1.00  0.00     0.085 C
ATOM     21  C   UNL     1      32.001  19.313  -6.112  1.00  0.00     0.088 C
ATOM     22  C   UNL     1      33.819  20.841  -6.217  1.00  0.00     0.020 C
ATOM     23  C   UNL     1      32.287  20.795  -6.284  1.00  0.00     0.004 C
BRANCH  23  24
ATOM     24  C   UNL     1      31.561  21.706  -5.289  1.00  0.00     0.005 C
ATOM     25  G   UNL     1      31.266  21.061  -3.923  1.00  0.00     0.000 C
ENDBRANCH  23  24
ENDBRANCH  18  19
ENDBRANCH  17  18
ENDBRANCH  16  17
ENDBRANCH   1  16
BRANCH   4  26
ATOM     26  N   UNL     1      34.330  12.732  -2.259  1.00  0.00    -0.324 N
ATOM     27  H   UNL     1      35.273  12.856  -1.929  1.00  0.00     0.170 HD
BRANCH  26  28
ATOM     28  C   UNL     1      33.993  11.381  -2.306  1.00  0.00     0.227 A
ATOM     29  N   UNL     1      34.854  10.547  -1.701  1.00  0.00    -0.221 NA
ATOM     30  N   UNL     1      32.913  10.959  -2.984  1.00  0.00    -0.212 NA
ATOM     31  C   UNL     1      34.595   9.229  -1.779  1.00  0.00     0.117 A
ATOM     32  C   UNL     1      32.708   9.629  -3.070  1.00  0.00     0.086 A
ATOM     33  C   UNL     1      33.525   8.706  -2.457  1.00  0.00     0.050 A
BRANCH  32  34
ATOM     34  C   UNL     1      31.546   9.209  -3.860  1.00  0.00     0.053 A
ATOM     35  C   UNL     1      31.154   7.934  -4.223  1.00  0.00     0.022 A
ATOM     36  S   UNL     1      30.484  10.385  -4.521  1.00  0.00    -0.136 S
ATOM     37  C   UNL     1      29.953   7.927  -4.992  1.00  0.00     0.018 A
ATOM     38  C   UNL     1      29.453   9.197  -5.202  1.00  0.00     0.031 A
BRANCH  38  39
ATOM     39  C   UNL     1      28.187   9.598  -5.907  1.00  0.00     0.207 C
BRANCH  39  40
ATOM     40  O   UNL     1      27.656   8.437  -6.560  1.00  0.00    -0.372 OA
BRANCH  40  41
ATOM     41  C   UNL     1      27.097   8.694  -7.856  1.00  0.00     0.188 C
ATOM     42  G   UNL     1      25.621   8.458  -7.829  1.00  0.00     0.000 C
ENDBRANCH  40  41
ENDBRANCH  39  40
ENDBRANCH  38  39
ENDBRANCH  32  34
ENDBRANCH  26  28
ENDBRANCH   4  26
TORSDOF 0
ENDMDL
MODEL 6
REMARK VINA RESULT:      -6.7      3.037      7.148
REMARK SMILES C1=C2\CCC[C@H]3CCN(CCOc4ccc(cc4COC2)Nc2nccc(n2)-c2ccc(s2)COC/1)C3
REMARK SMILES IDX 13 1 14 2 15 3 16 4 17 5 18 6 19 7 20 8 21 9 2 10 1 11 3 13
REMARK SMILES IDX 4 14 12 16 11 17 10 18 9 19 8 20 37 21 7 22 6 23 5 24 22 26
REMARK SMILES IDX 23 28 24 29 28 30 25 31 27 32 26 33 29 34 30 35 33 36 31 37
REMARK SMILES IDX 32 38 34 39 35 40 36 41
REMARK H PARENT 22 27
REMARK Flexibility Score:   91.800
ROOT
ATOM      1  C   UNL     1      30.750  16.136  -4.373  1.00  0.00     0.125 A
ATOM      2  C   UNL     1      30.507  15.286  -3.286  1.00  0.00     0.049 A
ATOM      3  C   UNL     1      31.303  14.163  -3.055  1.00  0.00     0.030 A
ATOM      4  C   UNL     1      32.388  13.885  -3.884  1.00  0.00     0.042 A
ATOM      5  C   UNL     1      32.596  14.716  -4.991  1.00  0.00     0.036 A
ATOM      6  C   UNL     1      31.782  15.838  -5.272  1.00  0.00     0.022 A
ENDROOT
BRANCH   6   7
ATOM      7  C   UNL     1      32.167  16.661  -6.480  1.00  0.00     0.200 C
BRANCH   7   8
ATOM      8  O   UNL     1      32.268  18.064  -6.255  1.00  0.00    -0.372 OA
BRANCH   8   9
ATOM      9  C   UNL     1      33.444  18.622  -6.825  1.00  0.00     0.191 C
BRANCH   9  10
ATOM     10  C   UNL     1      33.641  20.040  -6.332  1.00  0.00    -0.046 C
ATOM     11  C   UNL     1      34.693  20.750  -6.788  1.00  0.00     0.003 C
ATOM     12  G   UNL     1      35.243  22.035  -6.260  1.00  0.00     0.000 C
BRANCH  10  13
ATOM     13  C   UNL     1      32.674  20.506  -5.261  1.00  0.00     0.033 C
BRANCH  13  14
ATOM     14  C   UNL     1      31.635  21.484  -5.831  1.00  0.00     0.005 C
ATOM     15  G   UNL     1      30.188  20.959  -5.853  1.00  0.00     0.000 C
ENDBRANCH  13  14
ENDBRANCH  10  13
ENDBRANCH   9  10
ENDBRANCH   8   9
ENDBRANCH   7   8
ENDBRANCH   6   7
BRANCH   1  16
ATOM     16  O   UNL     1      30.082  17.323  -4.298  1.00  0.00    -0.492 OA
BRANCH  16  17
ATOM     17  C   UNL     1      28.678  17.309  -4.549  1.00  0.00     0.245 C
BRANCH  17  18
ATOM     18  C   UNL     1      28.431  16.968  -6.045  1.00  0.00     0.126 C
BRANCH  18  19
ATOM     19  N   UNL     1      27.335  16.030  -6.293  1.00  0.00    -0.300 NA
ATOM     20  C   UNL     1      27.355  14.800  -5.509  1.00  0.00     0.085 C
ATOM     21  C   UNL     1      27.169  15.620  -7.680  1.00  0.00     0.088 C
ATOM     22  C   UNL     1      26.420  13.852  -6.279  1.00  0.00     0.020 C
ATOM     23  C   UNL     1      26.025  14.629  -7.540  1.00  0.00     0.004 C
BRANCH  23  24
ATOM     24  C   UNL     1      25.766  13.771  -8.784  1.00  0.00     0.005 C
ATOM     25  G   UNL     1      25.449  12.294  -8.492  1.00  0.00     0.000 C
ENDBRANCH  23  24
ENDBRANCH  18  19
ENDBRANCH  17  18
ENDBRANCH  16  17
ENDBRANCH   1  16
BRANCH   4  26
ATOM     26  N   UNL     1      33.295  12.886  -3.525  1.00  0.00    -0.324 N
ATOM     27  H   UNL     1      34.280  13.094  -3.571  1.00  0.00     0.170 HD
BRANCH  26  28
ATOM     28  C   UNL     1      33.085  11.537  -3.243  1.00  0.00     0.227 A
ATOM     29  N   UNL     1      33.958  10.981  -2.388  1.00  0.00    -0.221 NA
ATOM     30  N   UNL     1      32.114  10.843  -3.859  1.00  0.00    -0.212 NA
ATOM     31  C   UNL     1      33.826   9.665  -2.140  1.00  0.00     0.117 A
ATOM     32  C   UNL     1      32.037   9.520  -3.611  1.00  0.00     0.086 A
ATOM     33  C   UNL     1      32.874   8.875  -2.729  1.00  0.00     0.050 A
BRANCH  32  34
ATOM     34  C   UNL     1      30.993   8.791  -4.340  1.00  0.00     0.053 A
ATOM     35  C   UNL     1      30.797   7.427  -4.448  1.00  0.00     0.022 A
ATOM     36  S   UNL     1      29.832   9.651  -5.268  1.00  0.00    -0.136 S
ATOM     37  C   UNL     1      29.660   7.098  -5.243  1.00  0.00     0.018 A
ATOM     38  C   UNL     1      29.012   8.216  -5.728  1.00  0.00     0.031 A
BRANCH  38  39
ATOM     39  C   UNL     1      27.753   8.286  -6.546  1.00  0.00     0.207 C
BRANCH  39  40
ATOM     40  O   UNL     1      26.877   7.240  -6.103  1.00  0.00    -0.372 OA
BRANCH  40  41
ATOM     41  C   UNL     1      25.548   7.680  -5.785  1.00  0.00     0.188 C
ATOM     42  G   UNL     1      24.564   6.611  -6.133  1.00  0.00     0.000 C
ENDBRANCH  40  41
ENDBRANCH  39  40
ENDBRANCH  38  39
ENDBRANCH  32  34
ENDBRANCH  26  28
ENDBRANCH   4  26
TORSDOF 0
ENDMDL
MODEL 7
REMARK VINA RESULT:      -6.7      2.921      7.078
REMARK SMILES C1=C2\CCC[C@H]3CCN(CCOc4ccc(cc4COC2)Nc2nccc(n2)-c2ccc(s2)COC/1)C3
REMARK SMILES IDX 13 1 14 2 15 3 16 4 17 5 18 6 19 7 20 8 21 9 2 10 1 11 3 13
REMARK SMILES IDX 4 14 12 16 11 17 10 18 9 19 8 20 37 21 7 22 6 23 5 24 22 26
REMARK SMILES IDX 23 28 24 29 28 30 25 31 27 32 26 33 29 34 30 35 33 36 31 37
REMARK SMILES IDX 32 38 34 39 35 40 36 41
REMARK H PARENT 22 27
REMARK Flexibility Score:   91.800
ROOT
ATOM      1  C   UNL     1      30.450  17.027  -4.426  1.00  0.00     0.125 A
ATOM      2  C   UNL     1      30.379  16.510  -3.127  1.00  0.00     0.049 A
ATOM      3  C   UNL     1      31.377  15.670  -2.628  1.00  0.00     0.030 A
ATOM      4  C   UNL     1      32.491  15.360  -3.406  1.00  0.00     0.042 A
ATOM      5  C   UNL     1      32.531  15.847  -4.717  1.00  0.00     0.036 A
ATOM      6  C   UNL     1      31.515  16.668  -5.261  1.00  0.00     0.022 A
ENDROOT
BRANCH   6   7
ATOM      7  C   UNL     1      31.729  17.150  -6.678  1.00  0.00     0.200 C
BRANCH   7   8
ATOM      8  O   UNL     1      32.457  18.369  -6.804  1.00  0.00    -0.372 OA
BRANCH   8   9
ATOM      9  C   UNL     1      32.982  18.818  -5.562  1.00  0.00     0.191 C
BRANCH   9  10
ATOM     10  C   UNL     1      32.497  20.222  -5.267  1.00  0.00    -0.046 C
ATOM     11  C   UNL     1      31.757  20.437  -4.161  1.00  0.00     0.003 C
ATOM     12  G   UNL     1      30.952  21.645  -3.805  1.00  0.00     0.000 C
BRANCH  10  13
ATOM     13  C   UNL     1      32.804  21.262  -6.326  1.00  0.00     0.033 C
BRANCH  13  14
ATOM     14  C   UNL     1      33.853  22.271  -5.833  1.00  0.00     0.005 C
ATOM     15  G   UNL     1      35.299  21.978  -6.271  1.00  0.00     0.000 C
ENDBRANCH  13  14
ENDBRANCH  10  13
ENDBRANCH   9  10
ENDBRANCH   8   9
ENDBRANCH   7   8
ENDBRANCH   6   7
BRANCH   1  16
ATOM     16  O   UNL     1      29.568  18.042  -4.658  1.00  0.00    -0.492 OA
BRANCH  16  17
ATOM     17  C   UNL     1      28.774  17.971  -5.841  1.00  0.00     0.245 C
BRANCH  17  18
ATOM     18  C   UNL     1      27.578  17.008  -5.595  1.00  0.00     0.126 C
BRANCH  18  19
ATOM     19  N   UNL     1      27.753  15.655  -6.127  1.00  0.00    -0.300 NA
ATOM     20  C   UNL     1      26.727  15.196  -7.057  1.00  0.00     0.085 C
ATOM     21  C   UNL     1      27.887  14.606  -5.126  1.00  0.00     0.088 C
ATOM     22  C   UNL     1      26.895  13.667  -7.072  1.00  0.00     0.020 C
ATOM     23  C   UNL     1      27.975  13.380  -6.021  1.00  0.00     0.004 C
BRANCH  23  24
ATOM     24  C   UNL     1      27.835  12.042  -5.287  1.00  0.00     0.005 C
ATOM     25  G   UNL     1      27.598  10.828  -6.203  1.00  0.00     0.000 C
ENDBRANCH  23  24
ENDBRANCH  18  19
ENDBRANCH  17  18
ENDBRANCH  16  17
ENDBRANCH   1  16
BRANCH   4  26
ATOM     26  N   UNL     1      33.574  14.694  -2.829  1.00  0.00    -0.324 N
ATOM     27  H   UNL     1      34.382  15.234  -2.563  1.00  0.00     0.170 HD
BRANCH  26  28
ATOM     28  C   UNL     1      33.819  13.330  -2.681  1.00  0.00     0.227 A
ATOM     29  N   UNL     1      35.018  13.007  -2.171  1.00  0.00    -0.221 NA
ATOM     30  N   UNL     1      32.927  12.416  -3.100  1.00  0.00    -0.212 NA
ATOM     31  C   UNL     1      35.315  11.699  -2.072  1.00  0.00     0.117 A
ATOM     32  C   UNL     1      33.277  11.117  -3.016  1.00  0.00     0.086 A
ATOM     33  C   UNL     1      34.475  10.698  -2.483  1.00  0.00     0.050 A
BRANCH  32  34
ATOM     34  C   UNL     1      32.295  10.155  -3.529  1.00  0.00     0.053 A
ATOM     35  C   UNL     1      31.206  10.376  -4.350  1.00  0.00     0.022 A
ATOM     36  S   UNL     1      32.384   8.504  -3.064  1.00  0.00    -0.136 S
ATOM     37  C   UNL     1      30.485   9.180  -4.640  1.00  0.00     0.018 A
ATOM     38  C   UNL     1      31.038   8.070  -4.032  1.00  0.00     0.031 A
BRANCH  38  39
ATOM     39  C   UNL     1      30.608   6.633  -4.142  1.00  0.00     0.207 C
BRANCH  39  40
ATOM     40  O   UNL     1      29.821   6.495  -5.333  1.00  0.00    -0.372 OA
BRANCH  40  41
ATOM     41  C   UNL     1      28.590   5.782  -5.146  1.00  0.00     0.188 C
ATOM     42  G   UNL     1      27.497   6.445  -5.920  1.00  0.00     0.000 C
ENDBRANCH  40  41
ENDBRANCH  39  40
ENDBRANCH  38  39
ENDBRANCH  32  34
ENDBRANCH  26  28
ENDBRANCH   4  26
TORSDOF 0
ENDMDL
MODEL 8
REMARK VINA RESULT:      -6.7      3.047     10.277
REMARK SMILES C1=C2\CCC[C@H]3CCN(CCOc4ccc(cc4COC2)Nc2nccc(n2)-c2ccc(s2)COC/1)C3
REMARK SMILES IDX 13 1 14 2 15 3 16 4 17 5 18 6 19 7 20 8 21 9 2 10 1 11 3 13
REMARK SMILES IDX 4 14 12 16 11 17 10 18 9 19 8 20 37 21 7 22 6 23 5 24 22 26
REMARK SMILES IDX 23 28 24 29 28 30 25 31 27 32 26 33 29 34 30 35 33 36 31 37
REMARK SMILES IDX 32 38 34 39 35 40 36 41
REMARK H PARENT 22 27
REMARK Flexibility Score:   91.800
ROOT
ATOM      1  C   UNL     1      30.289  14.217  -4.587  1.00  0.00     0.125 A
ATOM      2  C   UNL     1      29.329  15.236  -4.558  1.00  0.00     0.049 A
ATOM      3  C   UNL     1      29.675  16.547  -4.223  1.00  0.00     0.030 A
ATOM      4  C   UNL     1      31.001  16.877  -3.948  1.00  0.00     0.042 A
ATOM      5  C   UNL     1      31.945  15.843  -3.938  1.00  0.00     0.036 A
ATOM      6  C   UNL     1      31.615  14.500  -4.235  1.00  0.00     0.022 A
ENDROOT
BRANCH   6   7
ATOM      7  C   UNL     1      32.758  13.510  -4.226  1.00  0.00     0.200 C
BRANCH   7   8
ATOM      8  O   UNL     1      32.527  12.321  -3.477  1.00  0.00    -0.372 OA
BRANCH   8   9
ATOM      9  C   UNL     1      33.517  11.328  -3.716  1.00  0.00     0.191 C
BRANCH   9  10
ATOM     10  C   UNL     1      34.234  10.986  -2.427  1.00  0.00    -0.046 C
ATOM     11  C   UNL     1      35.268  11.756  -2.031  1.00  0.00     0.003 C
ATOM     12  G   UNL     1      36.283  11.472  -0.972  1.00  0.00     0.000 C
BRANCH  10  13
ATOM     13  C   UNL     1      33.784   9.711  -1.741  1.00  0.00     0.033 C
BRANCH  13  14
ATOM     14  C   UNL     1      32.991   8.809  -2.699  1.00  0.00     0.005 C
ATOM     15  G   UNL     1      31.472   8.770  -2.453  1.00  0.00     0.000 C
ENDBRANCH  13  14
ENDBRANCH  10  13
ENDBRANCH   9  10
ENDBRANCH   8   9
ENDBRANCH   7   8
ENDBRANCH   6   7
BRANCH   1  16
ATOM     16  O   UNL     1      29.858  13.078  -5.201  1.00  0.00    -0.492 OA
BRANCH  16  17
ATOM     17  C   UNL     1      29.049  12.182  -4.442  1.00  0.00     0.245 C
BRANCH  17  18
ATOM     18  C   UNL     1      28.013  11.508  -5.384  1.00  0.00     0.126 C
BRANCH  18  19
ATOM     19  N   UNL     1      28.170  10.061  -5.542  1.00  0.00    -0.300 NA
ATOM     20  C   UNL     1      29.512   9.535  -5.315  1.00  0.00     0.085 C
ATOM     21  C   UNL     1      27.742   9.525  -6.826  1.00  0.00     0.088 C
ATOM     22  C   UNL     1      29.489   8.150  -5.984  1.00  0.00     0.020 C
ATOM     23  C   UNL     1      28.111   8.061  -6.652  1.00  0.00     0.004 C
BRANCH  23  24
ATOM     24  C   UNL     1      28.060   7.232  -7.940  1.00  0.00     0.005 C
ATOM     25  G   UNL     1      28.702   5.837  -7.833  1.00  0.00     0.000 C
ENDBRANCH  23  24
ENDBRANCH  18  19
ENDBRANCH  17  18
ENDBRANCH  16  17
ENDBRANCH   1  16
BRANCH   4  26
ATOM     26  N   UNL     1      31.368  18.218  -3.819  1.00  0.00    -0.324 N
ATOM     27  H   UNL     1      31.731  18.532  -2.933  1.00  0.00     0.170 HD
BRANCH  26  28
ATOM     28  C   UNL     1      31.178  19.292  -4.687  1.00  0.00     0.227 A
ATOM     29  N   UNL     1      32.237  20.101  -4.850  1.00  0.00    -0.221 NA
ATOM     30  N   UNL     1      29.981  19.524  -5.250  1.00  0.00    -0.212 NA
ATOM     31  C   UNL     1      32.072  21.184  -5.631  1.00  0.00     0.117 A
ATOM     32  C   UNL     1      29.846  20.639  -5.997  1.00  0.00     0.086 A
ATOM     33  C   UNL     1      30.887  21.507  -6.237  1.00  0.00     0.050 A
BRANCH  32  34
ATOM     34  C   UNL     1      28.511  20.880  -6.554  1.00  0.00     0.053 A
ATOM     35  C   UNL     1      27.845  22.078  -6.733  1.00  0.00     0.022 A
ATOM     36  S   UNL     1      27.527  19.557  -7.033  1.00  0.00    -0.136 S
ATOM     37  C   UNL     1      26.555  21.907  -7.317  1.00  0.00     0.018 A
ATOM     38  C   UNL     1      26.261  20.582  -7.570  1.00  0.00     0.031 A
BRANCH  38  39
ATOM     39  C   UNL     1      25.038  20.005  -8.227  1.00  0.00     0.207 C
BRANCH  39  40
ATOM     40  O   UNL     1      24.948  18.621  -7.860  1.00  0.00    -0.372 OA
BRANCH  40  41
ATOM     41  C   UNL     1      24.860  17.720  -8.973  1.00  0.00     0.188 C
ATOM     42  G   UNL     1      24.674  18.494 -10.238  1.00  0.00     0.000 C
ENDBRANCH  40  41
ENDBRANCH  39  40
ENDBRANCH  38  39
ENDBRANCH  32  34
ENDBRANCH  26  28
ENDBRANCH   4  26
TORSDOF 0
ENDMDL
MODEL 9
REMARK VINA RESULT:      -6.7      2.951      6.184
REMARK SMILES C1=C2\CCC[C@H]3CCN(CCOc4ccc(cc4COC2)Nc2nccc(n2)-c2ccc(s2)COC/1)C3
REMARK SMILES IDX 13 1 14 2 15 3 16 4 17 5 18 6 19 7 20 8 21 9 2 10 1 11 3 13
REMARK SMILES IDX 4 14 12 16 11 17 10 18 9 19 8 20 37 21 7 22 6 23 5 24 22 26
REMARK SMILES IDX 23 28 24 29 28 30 25 31 27 32 26 33 29 34 30 35 33 36 31 37
REMARK SMILES IDX 32 38 34 39 35 40 36 41
REMARK H PARENT 22 27
REMARK Flexibility Score:   91.800
ROOT
ATOM      1  C   UNL     1      32.800  15.876  -4.233  1.00  0.00     0.125 A
ATOM      2  C   UNL     1      33.706  15.522  -3.224  1.00  0.00     0.049 A
ATOM      3  C   UNL     1      33.902  14.187  -2.866  1.00  0.00     0.030 A
ATOM      4  C   UNL     1      33.227  13.170  -3.538  1.00  0.00     0.042 A
ATOM      5  C   UNL     1      32.294  13.537  -4.515  1.00  0.00     0.036 A
ATOM      6  C   UNL     1      32.046  14.884  -4.871  1.00  0.00     0.022 A
ENDROOT
BRANCH   6   7
ATOM      7  C   UNL     1      31.041  15.112  -5.977  1.00  0.00     0.200 C
BRANCH   7   8
ATOM      8  O   UNL     1      29.764  14.514  -5.772  1.00  0.00    -0.372 OA
BRANCH   8   9
ATOM      9  C   UNL     1      29.040  15.129  -4.715  1.00  0.00     0.191 C
BRANCH   9  10
ATOM     10  C   UNL     1      27.730  15.684  -5.234  1.00  0.00    -0.046 C
ATOM     11  C   UNL     1      27.742  16.830  -5.944  1.00  0.00     0.003 C
ATOM     12  G   UNL     1      26.587  17.701  -6.318  1.00  0.00     0.000 C
BRANCH  10  13
ATOM     13  C   UNL     1      26.481  14.940  -4.803  1.00  0.00     0.033 C
BRANCH  13  14
ATOM     14  C   UNL     1      25.798  14.254  -5.997  1.00  0.00     0.005 C
ATOM     15  G   UNL     1      26.720  13.378  -6.862  1.00  0.00     0.000 C
ENDBRANCH  13  14
ENDBRANCH  10  13
ENDBRANCH   9  10
ENDBRANCH   8   9
ENDBRANCH   7   8
ENDBRANCH   6   7
BRANCH   1  16
ATOM     16  O   UNL     1      32.933  17.166  -4.656  1.00  0.00    -0.492 OA
BRANCH  16  17
ATOM     17  C   UNL     1      34.033  17.471  -5.513  1.00  0.00     0.245 C
BRANCH  17  18
ATOM     18  C   UNL     1      33.495  18.110  -6.824  1.00  0.00     0.126 C
BRANCH  18  19
ATOM     19  N   UNL     1      32.931  19.453  -6.672  1.00  0.00    -0.300 NA
ATOM     20  C   UNL     1      33.519  20.279  -5.623  1.00  0.00     0.085 C
ATOM     21  C   UNL     1      31.491  19.502  -6.461  1.00  0.00     0.088 C
ATOM     22  C   UNL     1      32.473  21.381  -5.385  1.00  0.00     0.020 C
ATOM     23  C   UNL     1      31.289  20.998  -6.282  1.00  0.00     0.004 C
BRANCH  23  24
ATOM     24  C   UNL     1      29.909  21.397  -5.749  1.00  0.00     0.005 C
ATOM     25  G   UNL     1      28.724  20.911  -6.603  1.00  0.00     0.000 C
ENDBRANCH  23  24
ENDBRANCH  18  19
ENDBRANCH  17  18
ENDBRANCH  16  17
ENDBRANCH   1  16
BRANCH   4  26
ATOM     26  N   UNL     1      33.583  11.838  -3.317  1.00  0.00    -0.324 N
ATOM     27  H   UNL     1      34.562  11.609  -3.245  1.00  0.00     0.170 HD
BRANCH  26  28
ATOM     28  C   UNL     1      32.803  10.683  -3.325  1.00  0.00     0.227 A
ATOM     29  N   UNL     1      33.316   9.632  -2.667  1.00  0.00    -0.221 NA
ATOM     30  N   UNL     1      31.654  10.628  -4.018  1.00  0.00    -0.212 NA
ATOM     31  C   UNL     1      32.621   8.480  -2.706  1.00  0.00     0.117 A
ATOM     32  C   UNL     1      31.005   9.446  -4.063  1.00  0.00     0.086 A
ATOM     33  C   UNL     1      31.447   8.327  -3.395  1.00  0.00     0.050 A
BRANCH  32  34
ATOM     34  C   UNL     1      29.781   9.417  -4.869  1.00  0.00     0.053 A
ATOM     35  C   UNL     1      28.799  10.382  -4.999  1.00  0.00     0.022 A
ATOM     36  S   UNL     1      29.384   8.016  -5.779  1.00  0.00    -0.136 S
ATOM     37  C   UNL     1      27.757   9.988  -5.889  1.00  0.00     0.018 A
ATOM     38  C   UNL     1      27.962   8.730  -6.420  1.00  0.00     0.031 A
BRANCH  38  39
ATOM     39  C   UNL     1      27.129   7.996  -7.433  1.00  0.00     0.207 C
BRANCH  39  40
ATOM     40  O   UNL     1      26.959   8.851  -8.572  1.00  0.00    -0.372 OA
BRANCH  40  41
ATOM     41  C   UNL     1      27.918   8.638  -9.617  1.00  0.00     0.188 C
ATOM     42  G   UNL     1      27.328   7.765 -10.677  1.00  0.00     0.000 C
ENDBRANCH  40  41
ENDBRANCH  39  40
ENDBRANCH  38  39
ENDBRANCH  32  34
ENDBRANCH  26  28
ENDBRANCH   4  26
TORSDOF 0
ENDMDL
