MODEL 1
REMARK VINA RESULT:      -8.4      0.000      0.000
REMARK SMILES N#C[C@@H]1CCN(C(=O)[C@@H]2NC(=O)c3c[nH]c4ncc(nc34)C3(CCC[C@H]4C[C@@H]42)CC3)C1
REMARK SMILES IDX 10 1 11 2 12 3 9 5 7 6 8 7 6 8 1 9 2 10 3 11 4 12 31 13 5 14
REMARK SMILES IDX 28 15 27 16 26 17 25 18 24 19 13 21 14 22 21 23 15 24 20 25
REMARK SMILES IDX 16 26 19 27 17 28 18 29 22 31 29 32 30 33 23 34
REMARK H PARENT 10 4 15 30
REMARK Flexibility Score:   57.900
ROOT
ATOM      1  N   UNL     1      31.122  14.900  -4.849  1.00  0.00    -0.340 N
ATOM      2  C   UNL     1      31.575  15.722  -5.848  1.00  0.00     0.255 C
ATOM      3  O   UNL     1      32.632  15.540  -6.444  1.00  0.00    -0.269 OA
ATOM      4  H   UNL     1      30.255  15.148  -4.380  1.00  0.00     0.164 HD
ENDROOT
BRANCH   1   5
ATOM      5  C   UNL     1      31.812  13.709  -4.410  1.00  0.00     0.175 C
BRANCH   5   6
ATOM      6  C   UNL     1      32.760  14.094  -3.241  1.00  0.00     0.245 C
ATOM      7  O   UNL     1      32.718  15.206  -2.705  1.00  0.00    -0.272 OA
BRANCH   6   8
ATOM      8  N   UNL     1      33.662  13.143  -2.802  1.00  0.00    -0.340 N
ATOM      9  N   UNL     1      34.808   8.929  -1.062  1.00  0.00    -0.198 NA
ATOM     10  C   UNL     1      34.833   9.900  -1.697  1.00  0.00     0.067 C
ATOM     11  C   UNL     1      34.856  11.126  -2.493  1.00  0.00     0.114 C
ATOM     12  C   UNL     1      35.595  12.270  -1.797  1.00  0.00     0.042 C
ATOM     13  C   UNL     1      33.456  11.704  -2.696  1.00  0.00     0.138 C
ATOM     14  C   UNL     1      35.032  13.502  -2.488  1.00  0.00     0.121 C
ENDBRANCH   6   8
ENDBRANCH   5   6
BRANCH   5  15
ATOM     15  C   UNL     1      30.743  12.687  -4.071  1.00  0.00     0.024 C
ATOM     16  C   UNL     1      29.612  12.321  -5.004  1.00  0.00     0.010 C
ATOM     17  C   UNL     1      30.712  11.321  -4.731  1.00  0.00    -0.005 C
BRANCH  17  18
ATOM     18  C   UNL     1      30.413  10.070  -3.955  1.00  0.00     0.004 C
BRANCH  18  19
ATOM     19  C   UNL     1      30.308   8.833  -4.859  1.00  0.00     0.001 C
ATOM     20  G   UNL     1      31.001   7.605  -4.251  1.00  0.00     0.000 C
ENDBRANCH  18  19
ENDBRANCH  17  18
ENDBRANCH   5  15
ENDBRANCH   1   5
BRANCH   2  21
ATOM     21  C   UNL     1      30.676  16.832  -6.132  1.00  0.00     0.085 A
ATOM     22  C   UNL     1      31.025  18.159  -6.343  1.00  0.00     0.100 A
ATOM     23  C   UNL     1      29.265  16.773  -6.267  1.00  0.00     0.120 A
ATOM     24  N   UNL     1      29.876  18.881  -6.572  1.00  0.00    -0.344 N
ATOM     25  N   UNL     1      28.436  15.703  -6.178  1.00  0.00    -0.246 NA
ATOM     26  C   UNL     1      28.794  18.047  -6.533  1.00  0.00     0.156 A
ATOM     27  C   UNL     1      27.123  15.956  -6.388  1.00  0.00     0.066 A
ATOM     28  N   UNL     1      27.505  18.384  -6.724  1.00  0.00    -0.235 NA
ATOM     29  C   UNL     1      26.706  17.279  -6.639  1.00  0.00     0.138 A
ATOM     30  H   UNL     1      29.817  19.873  -6.751  1.00  0.00     0.168 HD
BRANCH  27  31
ATOM     31  C   UNL     1      26.167  14.741  -6.365  1.00  0.00     0.014 C
ATOM     32  C   UNL     1      25.387  14.449  -5.088  1.00  0.00     0.014 C
ATOM     33  C   UNL     1      26.502  13.535  -5.499  1.00  0.00     0.014 C
BRANCH  31  34
ATOM     34  C   UNL     1      25.420  14.473  -7.681  1.00  0.00     0.013 C
ATOM     35  G   UNL     1      26.117  13.423  -8.559  1.00  0.00     0.000 C
ENDBRANCH  31  34
ENDBRANCH  27  31
ENDBRANCH   2  21
TORSDOF 2
ENDMDL
MODEL 2
REMARK VINA RESULT:      -8.4      1.704      2.523
REMARK SMILES N#C[C@@H]1CCN(C(=O)[C@@H]2NC(=O)c3c[nH]c4ncc(nc34)C3(CCC[C@H]4C[C@@H]42)CC3)C1
REMARK SMILES IDX 10 1 11 2 12 3 9 5 7 6 8 7 6 8 1 9 2 10 3 11 4 12 31 13 5 14
REMARK SMILES IDX 28 15 27 16 26 17 25 18 24 19 13 21 14 22 21 23 15 24 20 25
REMARK SMILES IDX 16 26 19 27 17 28 18 29 22 31 29 32 30 33 23 34
REMARK H PARENT 10 4 15 30
REMARK Flexibility Score:   57.900
ROOT
ATOM      1  N   UNL     1      31.915  15.943  -4.609  1.00  0.00    -0.340 N
ATOM      2  C   UNL     1      32.454  16.513  -5.733  1.00  0.00     0.255 C
ATOM      3  O   UNL     1      33.065  15.879  -6.586  1.00  0.00    -0.269 OA
ATOM      4  H   UNL     1      31.460  16.550  -3.933  1.00  0.00     0.164 HD
ENDROOT
BRANCH   1   5
ATOM      5  C   UNL     1      31.971  14.528  -4.319  1.00  0.00     0.175 C
BRANCH   5   6
ATOM      6  C   UNL     1      32.652  14.338  -2.936  1.00  0.00     0.245 C
ATOM      7  O   UNL     1      32.482  15.136  -2.008  1.00  0.00    -0.272 OA
BRANCH   6   8
ATOM      8  N   UNL     1      33.462  13.230  -2.762  1.00  0.00    -0.340 N
ATOM      9  N   UNL     1      34.216   8.689  -1.817  1.00  0.00    -0.198 NA
ATOM     10  C   UNL     1      34.301   9.739  -2.302  1.00  0.00     0.067 C
ATOM     11  C   UNL     1      34.400  11.066  -2.907  1.00  0.00     0.114 C
ATOM     12  C   UNL     1      35.359  11.990  -2.156  1.00  0.00     0.042 C
ATOM     13  C   UNL     1      33.076  11.827  -2.839  1.00  0.00     0.138 C
ATOM     14  C   UNL     1      34.893  13.374  -2.580  1.00  0.00     0.121 C
ENDBRANCH   6   8
ENDBRANCH   5   6
BRANCH   5  15
ATOM     15  C   UNL     1      30.550  14.007  -4.421  1.00  0.00     0.024 C
ATOM     16  C   UNL     1      29.784  13.919  -5.720  1.00  0.00     0.010 C
ATOM     17  C   UNL     1      30.242  12.653  -5.033  1.00  0.00    -0.005 C
BRANCH  17  18
ATOM     18  C   UNL     1      29.232  11.720  -4.430  1.00  0.00     0.004 C
BRANCH  18  19
ATOM     19  C   UNL     1      29.389  10.280  -4.941  1.00  0.00     0.001 C
ATOM     20  G   UNL     1      30.696   9.631  -4.466  1.00  0.00     0.000 C
ENDBRANCH  18  19
ENDBRANCH  17  18
ENDBRANCH   5  15
ENDBRANCH   1   5
BRANCH   2  21
ATOM     21  C   UNL     1      32.225  17.950  -5.814  1.00  0.00     0.085 A
ATOM     22  C   UNL     1      33.179  18.955  -5.722  1.00  0.00     0.100 A
ATOM     23  C   UNL     1      30.985  18.606  -6.020  1.00  0.00     0.120 A
ATOM     24  N   UNL     1      32.544  20.171  -5.842  1.00  0.00    -0.344 N
ATOM     25  N   UNL     1      29.749  18.074  -6.197  1.00  0.00    -0.246 NA
ATOM     26  C   UNL     1      31.204  19.972  -6.029  1.00  0.00     0.156 A
ATOM     27  C   UNL     1      28.750  18.964  -6.405  1.00  0.00     0.066 A
ATOM     28  N   UNL     1      30.263  20.918  -6.200  1.00  0.00    -0.235 NA
ATOM     29  C   UNL     1      29.038  20.343  -6.387  1.00  0.00     0.138 A
ATOM     30  H   UNL     1      32.980  21.081  -5.808  1.00  0.00     0.168 HD
BRANCH  27  31
ATOM     31  C   UNL     1      27.345  18.380  -6.683  1.00  0.00     0.014 C
ATOM     32  C   UNL     1      26.837  17.246  -5.800  1.00  0.00     0.014 C
ATOM     33  C   UNL     1      27.212  16.963  -7.224  1.00  0.00     0.014 C
BRANCH  31  34
ATOM     34  C   UNL     1      26.290  19.403  -7.131  1.00  0.00     0.013 C
ATOM     35  G   UNL     1      26.001  19.342  -8.637  1.00  0.00     0.000 C
ENDBRANCH  31  34
ENDBRANCH  27  31
ENDBRANCH   2  21
TORSDOF 2
ENDMDL
MODEL 3
REMARK VINA RESULT:      -8.3      1.948      7.352
REMARK SMILES N#C[C@@H]1CCN(C(=O)[C@@H]2NC(=O)c3c[nH]c4ncc(nc34)C3(CCC[C@H]4C[C@@H]42)CC3)C1
REMARK SMILES IDX 10 1 11 2 12 3 9 5 7 6 8 7 6 8 1 9 2 10 3 11 4 12 31 13 5 14
REMARK SMILES IDX 28 15 27 16 26 17 25 18 24 19 13 21 14 22 21 23 15 24 20 25
REMARK SMILES IDX 16 26 19 27 17 28 18 29 22 31 29 32 30 33 23 34
REMARK H PARENT 10 4 15 30
REMARK Flexibility Score:   57.900
ROOT
ATOM      1  N   UNL     1      31.217  15.194  -4.658  1.00  0.00    -0.340 N
ATOM      2  C   UNL     1      31.529  15.166  -3.324  1.00  0.00     0.255 C
ATOM      3  O   UNL     1      30.753  15.520  -2.442  1.00  0.00    -0.269 OA
ATOM      4  H   UNL     1      31.934  14.922  -5.325  1.00  0.00     0.164 HD
ENDROOT
BRANCH   1   5
ATOM      5  C   UNL     1      29.932  15.605  -5.177  1.00  0.00     0.175 C
BRANCH   5   6
ATOM      6  C   UNL     1      30.163  16.718  -6.235  1.00  0.00     0.245 C
ATOM      7  O   UNL     1      29.839  16.572  -7.419  1.00  0.00    -0.272 OA
BRANCH   6   8
ATOM      8  N   UNL     1      30.743  17.900  -5.812  1.00  0.00    -0.340 N
ATOM      9  N   UNL     1      34.338  20.898  -5.397  1.00  0.00    -0.198 NA
ATOM     10  C   UNL     1      33.266  20.482  -5.552  1.00  0.00     0.067 C
ATOM     11  C   UNL     1      31.920  19.948  -5.747  1.00  0.00     0.114 C
ATOM     12  C   UNL     1      31.165  19.751  -4.432  1.00  0.00     0.042 C
ATOM     13  C   UNL     1      31.942  18.539  -6.338  1.00  0.00     0.138 C
ATOM     14  C   UNL     1      30.105  18.726  -4.805  1.00  0.00     0.121 C
ENDBRANCH   6   8
ENDBRANCH   5   6
BRANCH   5  15
ATOM     15  C   UNL     1      29.250  14.350  -5.691  1.00  0.00     0.024 C
ATOM     16  C   UNL     1      29.530  12.967  -5.153  1.00  0.00     0.010 C
ATOM     17  C   UNL     1      28.199  13.625  -4.872  1.00  0.00    -0.005 C
BRANCH  17  18
ATOM     18  C   UNL     1      26.946  13.078  -5.493  1.00  0.00     0.004 C
BRANCH  18  19
ATOM     19  C   UNL     1      27.239  12.003  -6.550  1.00  0.00     0.001 C
ATOM     20  G   UNL     1      26.777  12.423  -7.953  1.00  0.00     0.000 C
ENDBRANCH  18  19
ENDBRANCH  17  18
ENDBRANCH   5  15
ENDBRANCH   1   5
BRANCH   2  21
ATOM     21  C   UNL     1      32.873  14.673  -3.058  1.00  0.00     0.085 A
ATOM     22  C   UNL     1      34.017  15.431  -2.850  1.00  0.00     0.100 A
ATOM     23  C   UNL     1      33.276  13.318  -2.942  1.00  0.00     0.120 A
ATOM     24  N   UNL     1      35.076  14.576  -2.641  1.00  0.00    -0.344 N
ATOM     25  N   UNL     1      32.532  12.187  -3.035  1.00  0.00    -0.246 NA
ATOM     26  C   UNL     1      34.637  13.282  -2.689  1.00  0.00     0.156 A
ATOM     27  C   UNL     1      33.200  11.025  -2.845  1.00  0.00     0.066 A
ATOM     28  N   UNL     1      35.375  12.170  -2.518  1.00  0.00    -0.235 NA
ATOM     29  C   UNL     1      34.588  11.057  -2.607  1.00  0.00     0.138 A
ATOM     30  H   UNL     1      36.035  14.840  -2.469  1.00  0.00     0.168 HD
BRANCH  27  31
ATOM     31  C   UNL     1      32.360   9.727  -2.874  1.00  0.00     0.014 C
ATOM     32  C   UNL     1      32.166   8.953  -1.575  1.00  0.00     0.014 C
ATOM     33  C   UNL     1      33.041   8.384  -2.651  1.00  0.00     0.014 C
BRANCH  31  34
ATOM     34  C   UNL     1      31.153   9.752  -3.824  1.00  0.00     0.013 C
ATOM     35  G   UNL     1      30.852   8.379  -4.442  1.00  0.00     0.000 C
ENDBRANCH  31  34
ENDBRANCH  27  31
ENDBRANCH   2  21
TORSDOF 2
ENDMDL
MODEL 4
REMARK VINA RESULT:      -8.3      1.892      7.627
REMARK SMILES N#C[C@@H]1CCN(C(=O)[C@@H]2NC(=O)c3c[nH]c4ncc(nc34)C3(CCC[C@H]4C[C@@H]42)CC3)C1
REMARK SMILES IDX 10 1 11 2 12 3 9 5 7 6 8 7 6 8 1 9 2 10 3 11 4 12 31 13 5 14
REMARK SMILES IDX 28 15 27 16 26 17 25 18 24 19 13 21 14 22 21 23 15 24 20 25
REMARK SMILES IDX 16 26 19 27 17 28 18 29 22 31 29 32 30 33 23 34
REMARK H PARENT 10 4 15 30
REMARK Flexibility Score:   57.900
ROOT
ATOM      1  N   UNL     1      32.267  13.941  -3.909  1.00  0.00    -0.340 N
ATOM      2  C   UNL     1      33.348  14.212  -3.112  1.00  0.00     0.255 C
ATOM      3  O   UNL     1      33.687  15.348  -2.796  1.00  0.00    -0.269 OA
ATOM      4  H   UNL     1      32.083  12.972  -4.155  1.00  0.00     0.164 HD
ENDROOT
BRANCH   1   5
ATOM      5  C   UNL     1      31.381  14.954  -4.436  1.00  0.00     0.175 C
BRANCH   5   6
ATOM      6  C   UNL     1      32.140  15.746  -5.535  1.00  0.00     0.245 C
ATOM      7  O   UNL     1      32.677  15.181  -6.494  1.00  0.00    -0.272 OA
BRANCH   6   8
ATOM      8  N   UNL     1      32.195  17.122  -5.417  1.00  0.00    -0.340 N
ATOM      9  N   UNL     1      30.256  21.371  -4.891  1.00  0.00    -0.198 NA
ATOM     10  C   UNL     1      30.988  20.477  -4.789  1.00  0.00     0.067 C
ATOM     11  C   UNL     1      31.903  19.344  -4.665  1.00  0.00     0.114 C
ATOM     12  C   UNL     1      32.960  19.313  -5.770  1.00  0.00     0.042 C
ATOM     13  C   UNL     1      31.187  18.006  -4.846  1.00  0.00     0.138 C
ATOM     14  C   UNL     1      33.393  17.855  -5.778  1.00  0.00     0.121 C
ENDBRANCH   6   8
ENDBRANCH   5   6
BRANCH   5  15
ATOM     15  C   UNL     1      30.127  14.235  -4.900  1.00  0.00     0.024 C
ATOM     16  C   UNL     1      29.216  13.463  -3.975  1.00  0.00     0.010 C
ATOM     17  C   UNL     1      28.742  14.765  -4.578  1.00  0.00    -0.005 C
BRANCH  17  18
ATOM     18  C   UNL     1      27.635  14.763  -5.592  1.00  0.00     0.004 C
BRANCH  18  19
ATOM     19  C   UNL     1      26.689  15.961  -5.427  1.00  0.00     0.001 C
ATOM     20  G   UNL     1      27.432  17.304  -5.485  1.00  0.00     0.000 C
ENDBRANCH  18  19
ENDBRANCH  17  18
ENDBRANCH   5  15
ENDBRANCH   1   5
BRANCH   2  21
ATOM     21  C   UNL     1      34.055  13.016  -2.675  1.00  0.00     0.085 A
ATOM     22  C   UNL     1      35.259  12.960  -1.986  1.00  0.00     0.100 A
ATOM     23  C   UNL     1      33.644  11.669  -2.853  1.00  0.00     0.120 A
ATOM     24  N   UNL     1      35.580  11.637  -1.775  1.00  0.00    -0.344 N
ATOM     25  N   UNL     1      32.524  11.183  -3.443  1.00  0.00    -0.246 NA
ATOM     26  C   UNL     1      34.600  10.839  -2.295  1.00  0.00     0.156 A
ATOM     27  C   UNL     1      32.391   9.836  -3.433  1.00  0.00     0.066 A
ATOM     28  N   UNL     1      34.555   9.494  -2.270  1.00  0.00    -0.235 NA
ATOM     29  C   UNL     1      33.408   9.046  -2.862  1.00  0.00     0.138 A
ATOM     30  H   UNL     1      36.402  11.288  -1.305  1.00  0.00     0.168 HD
BRANCH  27  31
ATOM     31  C   UNL     1      31.087   9.261  -4.034  1.00  0.00     0.014 C
ATOM     32  C   UNL     1      30.464   9.964  -5.235  1.00  0.00     0.014 C
ATOM     33  C   UNL     1      29.787  10.040  -3.899  1.00  0.00     0.014 C
BRANCH  31  34
ATOM     34  C   UNL     1      30.989   7.727  -4.032  1.00  0.00     0.013 C
ATOM     35  G   UNL     1      29.958   7.194  -5.038  1.00  0.00     0.000 C
ENDBRANCH  31  34
ENDBRANCH  27  31
ENDBRANCH   2  21
TORSDOF 2
ENDMDL
MODEL 5
REMARK VINA RESULT:      -8.3      2.060      7.355
REMARK SMILES N#C[C@@H]1CCN(C(=O)[C@@H]2NC(=O)c3c[nH]c4ncc(nc34)C3(CCC[C@H]4C[C@@H]42)CC3)C1
REMARK SMILES IDX 10 1 11 2 12 3 9 5 7 6 8 7 6 8 1 9 2 10 3 11 4 12 31 13 5 14
REMARK SMILES IDX 28 15 27 16 26 17 25 18 24 19 13 21 14 22 21 23 15 24 20 25
REMARK SMILES IDX 16 26 19 27 17 28 18 29 22 31 29 32 30 33 23 34
REMARK H PARENT 10 4 15 30
REMARK Flexibility Score:   57.900
ROOT
ATOM      1  N   UNL     1      32.393  14.404  -4.211  1.00  0.00    -0.340 N
ATOM      2  C   UNL     1      33.334  14.466  -3.216  1.00  0.00     0.255 C
ATOM      3  O   UNL     1      33.670  15.511  -2.670  1.00  0.00    -0.269 OA
ATOM      4  H   UNL     1      32.204  13.501  -4.637  1.00  0.00     0.164 HD
ENDROOT
BRANCH   1   5
ATOM      5  C   UNL     1      31.663  15.550  -4.702  1.00  0.00     0.175 C
BRANCH   5   6
ATOM      6  C   UNL     1      32.474  16.187  -5.863  1.00  0.00     0.245 C
ATOM      7  O   UNL     1      32.925  15.511  -6.794  1.00  0.00    -0.272 OA
BRANCH   6   8
ATOM      8  N   UNL     1      32.678  17.555  -5.833  1.00  0.00    -0.340 N
ATOM      9  N   UNL     1      35.233  21.434  -6.547  1.00  0.00    -0.198 NA
ATOM     10  C   UNL     1      34.332  20.705  -6.498  1.00  0.00     0.067 C
ATOM     11  C   UNL     1      33.202  19.779  -6.434  1.00  0.00     0.114 C
ATOM     12  C   UNL     1      32.525  19.766  -5.063  1.00  0.00     0.042 C
ATOM     13  C   UNL     1      33.642  18.326  -6.606  1.00  0.00     0.138 C
ATOM     14  C   UNL     1      31.815  18.421  -5.053  1.00  0.00     0.121 C
ENDBRANCH   6   8
ENDBRANCH   5   6
BRANCH   5  15
ATOM     15  C   UNL     1      30.276  15.056  -5.072  1.00  0.00     0.024 C
ATOM     16  C   UNL     1      29.298  14.487  -4.072  1.00  0.00     0.010 C
ATOM     17  C   UNL     1      29.029  15.836  -4.698  1.00  0.00    -0.005 C
BRANCH  17  18
ATOM     18  C   UNL     1      27.882  16.005  -5.651  1.00  0.00     0.004 C
BRANCH  18  19
ATOM     19  C   UNL     1      26.541  15.580  -5.033  1.00  0.00     0.001 C
ATOM     20  G   UNL     1      26.021  14.259  -5.618  1.00  0.00     0.000 C
ENDBRANCH  18  19
ENDBRANCH  17  18
ENDBRANCH   5  15
ENDBRANCH   1   5
BRANCH   2  21
ATOM     21  C   UNL     1      33.894  13.166  -2.872  1.00  0.00     0.085 A
ATOM     22  C   UNL     1      35.106  12.918  -2.243  1.00  0.00     0.100 A
ATOM     23  C   UNL     1      33.302  11.896  -3.096  1.00  0.00     0.120 A
ATOM     24  N   UNL     1      35.258  11.555  -2.112  1.00  0.00    -0.344 N
ATOM     25  N   UNL     1      32.105  11.592  -3.657  1.00  0.00    -0.246 NA
ATOM     26  C   UNL     1      34.162  10.920  -2.624  1.00  0.00     0.156 A
ATOM     27  C   UNL     1      31.796  10.275  -3.706  1.00  0.00     0.066 A
ATOM     28  N   UNL     1      33.940   9.593  -2.663  1.00  0.00    -0.235 NA
ATOM     29  C   UNL     1      32.722   9.330  -3.223  1.00  0.00     0.138 A
ATOM     30  H   UNL     1      36.045  11.077  -1.697  1.00  0.00     0.168 HD
BRANCH  27  31
ATOM     31  C   UNL     1      30.406   9.907  -4.275  1.00  0.00     0.014 C
ATOM     32  C   UNL     1      29.973   8.446  -4.259  1.00  0.00     0.014 C
ATOM     33  C   UNL     1      30.307   9.104  -5.564  1.00  0.00     0.014 C
BRANCH  31  34
ATOM     34  C   UNL     1      29.297  10.935  -4.003  1.00  0.00     0.013 C
ATOM     35  G   UNL     1      28.405  11.188  -5.227  1.00  0.00     0.000 C
ENDBRANCH  31  34
ENDBRANCH  27  31
ENDBRANCH   2  21
TORSDOF 2
ENDMDL
MODEL 6
REMARK VINA RESULT:      -8.1      1.949      7.295
REMARK SMILES N#C[C@@H]1CCN(C(=O)[C@@H]2NC(=O)c3c[nH]c4ncc(nc34)C3(CCC[C@H]4C[C@@H]42)CC3)C1
REMARK SMILES IDX 10 1 11 2 12 3 9 5 7 6 8 7 6 8 1 9 2 10 3 11 4 12 31 13 5 14
REMARK SMILES IDX 28 15 27 16 26 17 25 18 24 19 13 21 14 22 21 23 15 24 20 25
REMARK SMILES IDX 16 26 19 27 17 28 18 29 22 31 29 32 30 33 23 34
REMARK H PARENT 10 4 15 30
REMARK Flexibility Score:   57.900
ROOT
ATOM      1  N   UNL     1      31.459  15.146  -4.622  1.00  0.00    -0.340 N
ATOM      2  C   UNL     1      31.892  15.370  -3.341  1.00  0.00     0.255 C
ATOM      3  O   UNL     1      31.288  16.072  -2.537  1.00  0.00    -0.269 OA
ATOM      4  H   UNL     1      32.043  14.584  -5.235  1.00  0.00     0.164 HD
ENDROOT
BRANCH   1   5
ATOM      5  C   UNL     1      30.227  15.677  -5.160  1.00  0.00     0.175 C
BRANCH   5   6
ATOM      6  C   UNL     1      30.570  16.567  -6.385  1.00  0.00     0.245 C
ATOM      7  O   UNL     1      29.896  16.542  -7.421  1.00  0.00    -0.272 OA
BRANCH   6   8
ATOM      8  N   UNL     1      31.663  17.409  -6.285  1.00  0.00    -0.340 N
ATOM      9  N   UNL     1      33.703  21.554  -5.424  1.00  0.00    -0.198 NA
ATOM     10  C   UNL     1      33.508  20.411  -5.457  1.00  0.00     0.067 C
ATOM     11  C   UNL     1      33.252  18.972  -5.502  1.00  0.00     0.114 C
ATOM     12  C   UNL     1      33.767  18.319  -6.785  1.00  0.00     0.042 C
ATOM     13  C   UNL     1      31.758  18.657  -5.539  1.00  0.00     0.138 C
ATOM     14  C   UNL     1      32.940  17.046  -6.868  1.00  0.00     0.121 C
ENDBRANCH   6   8
ENDBRANCH   5   6
BRANCH   5  15
ATOM     15  C   UNL     1      29.331  14.486  -5.451  1.00  0.00     0.024 C
ATOM     16  C   UNL     1      28.340  13.925  -4.460  1.00  0.00     0.010 C
ATOM     17  C   UNL     1      27.842  14.652  -5.687  1.00  0.00    -0.005 C
BRANCH  17  18
ATOM     18  C   UNL     1      27.119  13.896  -6.765  1.00  0.00     0.004 C
BRANCH  18  19
ATOM     19  C   UNL     1      25.804  14.575  -7.173  1.00  0.00     0.001 C
ATOM     20  G   UNL     1      24.781  13.578  -7.735  1.00  0.00     0.000 C
ENDBRANCH  18  19
ENDBRANCH  17  18
ENDBRANCH   5  15
ENDBRANCH   1   5
BRANCH   2  21
ATOM     21  C   UNL     1      33.141  14.688  -3.029  1.00  0.00     0.085 A
ATOM     22  C   UNL     1      34.347  15.275  -2.670  1.00  0.00     0.100 A
ATOM     23  C   UNL     1      33.368  13.288  -3.014  1.00  0.00     0.120 A
ATOM     24  N   UNL     1      35.274  14.277  -2.469  1.00  0.00    -0.344 N
ATOM     25  N   UNL     1      32.503  12.273  -3.267  1.00  0.00    -0.246 NA
ATOM     26  C   UNL     1      34.689  13.058  -2.671  1.00  0.00     0.156 A
ATOM     27  C   UNL     1      33.009  11.024  -3.141  1.00  0.00     0.066 A
ATOM     28  N   UNL     1      35.272  11.851  -2.555  1.00  0.00    -0.235 NA
ATOM     29  C   UNL     1      34.367  10.859  -2.804  1.00  0.00     0.138 A
ATOM     30  H   UNL     1      36.241  14.402  -2.205  1.00  0.00     0.168 HD
BRANCH  27  31
ATOM     31  C   UNL     1      32.024   9.850  -3.352  1.00  0.00     0.014 C
ATOM     32  C   UNL     1      31.515   9.094  -2.131  1.00  0.00     0.014 C
ATOM     33  C   UNL     1      32.478   8.426  -3.066  1.00  0.00     0.014 C
BRANCH  31  34
ATOM     34  C   UNL     1      31.008  10.047  -4.488  1.00  0.00     0.013 C
ATOM     35  G   UNL     1      29.666  10.608  -3.996  1.00  0.00     0.000 C
ENDBRANCH  31  34
ENDBRANCH  27  31
ENDBRANCH   2  21
TORSDOF 2
ENDMDL
MODEL 7
REMARK VINA RESULT:      -8.1      1.798      7.699
REMARK SMILES N#C[C@@H]1CCN(C(=O)[C@@H]2NC(=O)c3c[nH]c4ncc(nc34)C3(CCC[C@H]4C[C@@H]42)CC3)C1
REMARK SMILES IDX 10 1 11 2 12 3 9 5 7 6 8 7 6 8 1 9 2 10 3 11 4 12 31 13 5 14
REMARK SMILES IDX 28 15 27 16 26 17 25 18 24 19 13 21 14 22 21 23 15 24 20 25
REMARK SMILES IDX 16 26 19 27 17 28 18 29 22 31 29 32 30 33 23 34
REMARK H PARENT 10 4 15 30
REMARK Flexibility Score:   57.900
ROOT
ATOM      1  N   UNL     1      31.645  14.780  -4.541  1.00  0.00    -0.340 N
ATOM      2  C   UNL     1      32.161  15.323  -3.393  1.00  0.00     0.255 C
ATOM      3  O   UNL     1      31.591  16.192  -2.742  1.00  0.00    -0.269 OA
ATOM      4  H   UNL     1      32.204  14.094  -5.041  1.00  0.00     0.164 HD
ENDROOT
BRANCH   1   5
ATOM      5  C   UNL     1      30.359  15.139  -5.095  1.00  0.00     0.175 C
BRANCH   5   6
ATOM      6  C   UNL     1      30.564  16.312  -6.091  1.00  0.00     0.245 C
ATOM      7  O   UNL     1      31.594  16.425  -6.765  1.00  0.00    -0.272 OA
BRANCH   6   8
ATOM      8  N   UNL     1      29.547  17.240  -6.213  1.00  0.00    -0.340 N
ATOM      9  N   UNL     1      25.262  18.618  -7.567  1.00  0.00    -0.198 NA
ATOM     10  C   UNL     1      26.226  18.488  -6.935  1.00  0.00     0.067 C
ATOM     11  C   UNL     1      27.444  18.317  -6.144  1.00  0.00     0.114 C
ATOM     12  C   UNL     1      28.528  19.335  -6.500  1.00  0.00     0.042 C
ATOM     13  C   UNL     1      28.129  16.981  -6.430  1.00  0.00     0.138 C
ATOM     14  C   UNL     1      29.798  18.655  -6.014  1.00  0.00     0.121 C
ENDBRANCH   6   8
ENDBRANCH   5   6
BRANCH   5  15
ATOM     15  C   UNL     1      29.776  13.872  -5.693  1.00  0.00     0.024 C
ATOM     16  C   UNL     1      30.259  12.484  -5.344  1.00  0.00     0.010 C
ATOM     17  C   UNL     1      28.896  12.941  -4.879  1.00  0.00    -0.005 C
BRANCH  17  18
ATOM     18  C   UNL     1      27.658  12.314  -5.452  1.00  0.00     0.004 C
BRANCH  18  19
ATOM     19  C   UNL     1      27.631  10.791  -5.258  1.00  0.00     0.001 C
ATOM     20  G   UNL     1      27.550  10.033  -6.591  1.00  0.00     0.000 C
ENDBRANCH  18  19
ENDBRANCH  17  18
ENDBRANCH   5  15
ENDBRANCH   1   5
BRANCH   2  21
ATOM     21  C   UNL     1      33.454  14.763  -3.023  1.00  0.00     0.085 A
ATOM     22  C   UNL     1      34.623  15.462  -2.756  1.00  0.00     0.100 A
ATOM     23  C   UNL     1      33.769  13.391  -2.844  1.00  0.00     0.120 A
ATOM     24  N   UNL     1      35.614  14.555  -2.452  1.00  0.00    -0.344 N
ATOM     25  N   UNL     1      32.968  12.302  -2.959  1.00  0.00    -0.246 NA
ATOM     26  C   UNL     1      35.105  13.287  -2.497  1.00  0.00     0.156 A
ATOM     27  C   UNL     1      33.553  11.111  -2.692  1.00  0.00     0.066 A
ATOM     28  N   UNL     1      35.764  12.141  -2.246  1.00  0.00    -0.235 NA
ATOM     29  C   UNL     1      34.921  11.072  -2.360  1.00  0.00     0.138 A
ATOM     30  H   UNL     1      36.573  14.770  -2.221  1.00  0.00     0.168 HD
BRANCH  27  31
ATOM     31  C   UNL     1      32.643   9.861  -2.745  1.00  0.00     0.014 C
ATOM     32  C   UNL     1      32.467   9.031  -1.479  1.00  0.00     0.014 C
ATOM     33  C   UNL     1      33.259   8.475  -2.625  1.00  0.00     0.014 C
BRANCH  31  34
ATOM     34  C   UNL     1      31.396  10.000  -3.632  1.00  0.00     0.013 C
ATOM     35  G   UNL     1      31.034   8.697  -4.361  1.00  0.00     0.000 C
ENDBRANCH  31  34
ENDBRANCH  27  31
ENDBRANCH   2  21
TORSDOF 2
ENDMDL
MODEL 8
REMARK VINA RESULT:      -8.1      1.790      4.326
REMARK SMILES N#C[C@@H]1CCN(C(=O)[C@@H]2NC(=O)c3c[nH]c4ncc(nc34)C3(CCC[C@H]4C[C@@H]42)CC3)C1
REMARK SMILES IDX 10 1 11 2 12 3 9 5 7 6 8 7 6 8 1 9 2 10 3 11 4 12 31 13 5 14
REMARK SMILES IDX 28 15 27 16 26 17 25 18 24 19 13 21 14 22 21 23 15 24 20 25
REMARK SMILES IDX 16 26 19 27 17 28 18 29 22 31 29 32 30 33 23 34
REMARK H PARENT 10 4 15 30
REMARK Flexibility Score:   57.900
ROOT
ATOM      1  N   UNL     1      30.434  14.809  -4.779  1.00  0.00    -0.340 N
ATOM      2  C   UNL     1      30.656  15.609  -5.869  1.00  0.00     0.255 C
ATOM      3  O   UNL     1      31.579  15.435  -6.657  1.00  0.00    -0.269 OA
ATOM      4  H   UNL     1      29.669  15.050  -4.154  1.00  0.00     0.164 HD
ENDROOT
BRANCH   1   5
ATOM      5  C   UNL     1      31.233  13.650  -4.454  1.00  0.00     0.175 C
BRANCH   5   6
ATOM      6  C   UNL     1      32.364  14.089  -3.483  1.00  0.00     0.245 C
ATOM      7  O   UNL     1      32.465  15.254  -3.084  1.00  0.00    -0.272 OA
BRANCH   6   8
ATOM      8  N   UNL     1      33.265  13.128  -3.065  1.00  0.00    -0.340 N
ATOM      9  N   UNL     1      34.434   8.797  -1.663  1.00  0.00    -0.198 NA
ATOM     10  C   UNL     1      34.472   9.829  -2.192  1.00  0.00     0.067 C
ATOM     11  C   UNL     1      34.511  11.131  -2.855  1.00  0.00     0.114 C
ATOM     12  C   UNL     1      35.141  12.220  -1.986  1.00  0.00     0.042 C
ATOM     13  C   UNL     1      33.111  11.680  -3.122  1.00  0.00     0.138 C
ATOM     14  C   UNL     1      34.587  13.498  -2.596  1.00  0.00     0.121 C
ENDBRANCH   6   8
ENDBRANCH   5   6
BRANCH   5  15
ATOM     15  C   UNL     1      30.280  12.602  -3.909  1.00  0.00     0.024 C
ATOM     16  C   UNL     1      28.803  12.573  -4.226  1.00  0.00     0.010 C
ATOM     17  C   UNL     1      29.712  11.508  -4.794  1.00  0.00    -0.005 C
BRANCH  17  18
ATOM     18  C   UNL     1      29.591  10.087  -4.322  1.00  0.00     0.004 C
BRANCH  18  19
ATOM     19  C   UNL     1      30.732   9.200  -4.841  1.00  0.00     0.001 C
ATOM     20  G   UNL     1      31.433   8.430  -3.713  1.00  0.00     0.000 C
ENDBRANCH  18  19
ENDBRANCH  17  18
ENDBRANCH   5  15
ENDBRANCH   1   5
BRANCH   2  21
ATOM     21  C   UNL     1      29.684  16.687  -5.998  1.00  0.00     0.085 A
ATOM     22  C   UNL     1      28.312  16.560  -6.164  1.00  0.00     0.100 A
ATOM     23  C   UNL     1      29.947  18.080  -5.964  1.00  0.00     0.120 A
ATOM     24  N   UNL     1      27.765  17.821  -6.251  1.00  0.00    -0.344 N
ATOM     25  N   UNL     1      31.126  18.730  -5.797  1.00  0.00    -0.246 NA
ATOM     26  C   UNL     1      28.751  18.758  -6.126  1.00  0.00     0.156 A
ATOM     27  C   UNL     1      31.055  20.082  -5.777  1.00  0.00     0.066 A
ATOM     28  N   UNL     1      28.603  20.096  -6.147  1.00  0.00    -0.235 NA
ATOM     29  C   UNL     1      29.809  20.711  -5.963  1.00  0.00     0.138 A
ATOM     30  H   UNL     1      26.788  18.042  -6.380  1.00  0.00     0.168 HD
BRANCH  27  31
ATOM     31  C   UNL     1      32.375  20.844  -5.514  1.00  0.00     0.014 C
ATOM     32  C   UNL     1      32.358  22.024  -4.550  1.00  0.00     0.014 C
ATOM     33  C   UNL     1      32.535  22.270  -6.019  1.00  0.00     0.014 C
BRANCH  31  34
ATOM     34  C   UNL     1      33.638  19.969  -5.477  1.00  0.00     0.013 C
ATOM     35  G   UNL     1      34.375  19.927  -6.823  1.00  0.00     0.000 C
ENDBRANCH  31  34
ENDBRANCH  27  31
ENDBRANCH   2  21
TORSDOF 2
ENDMDL
MODEL 9
REMARK VINA RESULT:      -8.1      1.824      7.784
REMARK SMILES N#C[C@@H]1CCN(C(=O)[C@@H]2NC(=O)c3c[nH]c4ncc(nc34)C3(CCC[C@H]4C[C@@H]42)CC3)C1
REMARK SMILES IDX 10 1 11 2 12 3 9 5 7 6 8 7 6 8 1 9 2 10 3 11 4 12 31 13 5 14
REMARK SMILES IDX 28 15 27 16 26 17 25 18 24 19 13 21 14 22 21 23 15 24 20 25
REMARK SMILES IDX 16 26 19 27 17 28 18 29 22 31 29 32 30 33 23 34
REMARK H PARENT 10 4 15 30
REMARK Flexibility Score:   57.900
ROOT
ATOM      1  N   UNL     1      32.388  15.456  -4.795  1.00  0.00    -0.340 N
ATOM      2  C   UNL     1      32.576  15.472  -3.438  1.00  0.00     0.255 C
ATOM      3  O   UNL     1      31.891  16.140  -2.669  1.00  0.00    -0.269 OA
ATOM      4  H   UNL     1      33.028  14.906  -5.362  1.00  0.00     0.164 HD
ENDROOT
BRANCH   1   5
ATOM      5  C   UNL     1      31.343  16.189  -5.473  1.00  0.00     0.175 C
BRANCH   5   6
ATOM      6  C   UNL     1      32.006  17.263  -6.379  1.00  0.00     0.245 C
ATOM      7  O   UNL     1      32.881  16.973  -7.202  1.00  0.00    -0.272 OA
BRANCH   6   8
ATOM      8  N   UNL     1      31.581  18.571  -6.246  1.00  0.00    -0.340 N
ATOM      9  N   UNL     1      28.382  22.000  -6.569  1.00  0.00    -0.198 NA
ATOM     10  C   UNL     1      29.250  21.341  -6.173  1.00  0.00     0.067 C
ATOM     11  C   UNL     1      30.343  20.504  -5.680  1.00  0.00     0.114 C
ATOM     12  C   UNL     1      31.704  20.915  -6.243  1.00  0.00     0.042 C
ATOM     13  C   UNL     1      30.210  19.055  -6.146  1.00  0.00     0.138 C
ATOM     14  C   UNL     1      32.533  19.652  -6.072  1.00  0.00     0.121 C
ENDBRANCH   6   8
ENDBRANCH   5   6
BRANCH   5  15
ATOM     15  C   UNL     1      30.491  15.163  -6.196  1.00  0.00     0.024 C
ATOM     16  C   UNL     1      30.103  13.830  -5.601  1.00  0.00     0.010 C
ATOM     17  C   UNL     1      29.052  14.899  -5.794  1.00  0.00    -0.005 C
BRANCH  17  18
ATOM     18  C   UNL     1      27.965  14.707  -6.812  1.00  0.00     0.004 C
BRANCH  18  19
ATOM     19  C   UNL     1      26.694  14.097  -6.201  1.00  0.00     0.001 C
ATOM     20  G   UNL     1      26.201  14.881  -4.976  1.00  0.00     0.000 C
ENDBRANCH  18  19
ENDBRANCH  17  18
ENDBRANCH   5  15
ENDBRANCH   1   5
BRANCH   2  21
ATOM     21  C   UNL     1      33.668  14.615  -2.998  1.00  0.00     0.085 A
ATOM     22  C   UNL     1      34.898  15.019  -2.496  1.00  0.00     0.100 A
ATOM     23  C   UNL     1      33.686  13.197  -2.980  1.00  0.00     0.120 A
ATOM     24  N   UNL     1      35.642  13.896  -2.208  1.00  0.00    -0.344 N
ATOM     25  N   UNL     1      32.717  12.320  -3.344  1.00  0.00    -0.246 NA
ATOM     26  C   UNL     1      34.911  12.777  -2.494  1.00  0.00     0.156 A
ATOM     27  C   UNL     1      33.018  11.010  -3.182  1.00  0.00     0.066 A
ATOM     28  N   UNL     1      35.296  11.497  -2.332  1.00  0.00    -0.235 NA
ATOM     29  C   UNL     1      34.290  10.648  -2.697  1.00  0.00     0.138 A
ATOM     30  H   UNL     1      36.580  13.878  -1.835  1.00  0.00     0.168 HD
BRANCH  27  31
ATOM     31  C   UNL     1      31.903   9.993  -3.522  1.00  0.00     0.014 C
ATOM     32  C   UNL     1      31.287   9.179  -2.390  1.00  0.00     0.014 C
ATOM     33  C   UNL     1      32.178   8.502  -3.388  1.00  0.00     0.014 C
BRANCH  31  34
ATOM     34  C   UNL     1      30.936  10.431  -4.633  1.00  0.00     0.013 C
ATOM     35  G   UNL     1      29.489  10.580  -4.140  1.00  0.00     0.000 C
ENDBRANCH  31  34
ENDBRANCH  27  31
ENDBRANCH   2  21
TORSDOF 2
ENDMDL
