MODEL 1
REMARK VINA RESULT:      -9.2      0.000      0.000
REMARK SMILES NC(=O)c1cnc2c3c1[nH]c1cc(ccc13)-c1ccc(nn1)N1CCS(=O)(=O)[C@@H](CCCC3(CC3)[C@H](C(F)(F)F)N2)C1
REMARK SMILES IDX 4 1 5 2 6 3 7 4 8 5 9 6 10 7 11 8 12 9 13 10 14 11 15 12
REMARK SMILES IDX 16 13 2 15 1 16 3 17 41 20 36 22 33 23 34 24 35 25 32 26
REMARK SMILES IDX 37 28 38 29 39 30 40 31 17 32 18 33 22 34 19 35 21 36 20 37
REMARK SMILES IDX 23 38 24 39 42 40 25 41 29 42 26 43 27 44 28 45 30 46 31 47
REMARK H PARENT 10 14 1 18 1 19 41 21
REMARK Flexibility Score:   48.900
ROOT
ATOM      1  C   UNL     1      33.807  10.645  -2.632  1.00  0.00     0.082 A
ATOM      2  C   UNL     1      34.296  11.927  -2.851  1.00  0.00     0.129 A
ATOM      3  N   UNL     1      33.692  12.884  -3.607  1.00  0.00    -0.238 NA
ATOM      4  C   UNL     1      32.510  12.613  -4.205  1.00  0.00     0.136 A
ATOM      5  C   UNL     1      31.865  11.393  -3.911  1.00  0.00     0.051 A
ATOM      6  C   UNL     1      32.559  10.406  -3.214  1.00  0.00     0.065 A
ATOM      7  N   UNL     1      31.808   9.250  -3.300  1.00  0.00    -0.354 N
ATOM      8  C   UNL     1      30.691   9.461  -4.076  1.00  0.00     0.047 A
ATOM      9  C   UNL     1      29.805   8.565  -4.698  1.00  0.00     0.037 A
ATOM     10  C   UNL     1      28.832   9.117  -5.561  1.00  0.00     0.004 A
ATOM     11  C   UNL     1      28.554  10.496  -5.455  1.00  0.00     0.011 A
ATOM     12  C   UNL     1      29.435  11.368  -4.821  1.00  0.00     0.012 A
ATOM     13  C   UNL     1      30.598  10.837  -4.255  1.00  0.00     0.011 A
ATOM     14  H   UNL     1      32.130   8.354  -2.949  1.00  0.00     0.167 HD
ENDROOT
BRANCH   1  15
ATOM     15  C   UNL     1      34.510   9.578  -1.890  1.00  0.00     0.252 C
ATOM     16  N   UNL     1      35.439   9.928  -0.953  1.00  0.00    -0.365 N
ATOM     17  O   UNL     1      34.256   8.397  -2.106  1.00  0.00    -0.269 OA
ATOM     18  H   UNL     1      35.680  10.869  -0.682  1.00  0.00     0.159 HD
ATOM     19  H   UNL     1      35.899   9.171  -0.462  1.00  0.00     0.159 HD
ENDBRANCH   1  15
BRANCH   4  20
ATOM     20  N   UNL     1      32.027  13.525  -5.138  1.00  0.00    -0.358 N
ATOM     21  H   UNL     1      31.108  13.193  -5.431  1.00  0.00     0.162 HD
BRANCH  20  22
ATOM     22  C   UNL     1      31.914  14.964  -4.705  1.00  0.00     0.192 C
BRANCH  22  23
ATOM     23  C   UNL     1      30.740  15.241  -3.710  1.00  0.00    -0.001 C
ATOM     24  C   UNL     1      30.913  15.044  -2.202  1.00  0.00     0.010 C
ATOM     25  C   UNL     1      30.870  16.427  -2.756  1.00  0.00     0.010 C
BRANCH  23  26
ATOM     26  C   UNL     1      29.345  14.960  -4.281  1.00  0.00     0.009 C
ATOM     27  G   UNL     1      28.518  16.190  -4.690  1.00  0.00     0.000 C
ENDBRANCH  23  26
ENDBRANCH  22  23
BRANCH  22  28
ATOM     28  C   UNL     1      32.073  15.984  -5.871  1.00  0.00     0.409 C
ATOM     29  F   UNL     1      32.356  17.222  -5.385  1.00  0.00    -0.169 F
ATOM     30  F   UNL     1      30.986  16.103  -6.661  1.00  0.00    -0.169 F
ATOM     31  F   UNL     1      33.124  15.641  -6.661  1.00  0.00    -0.169 F
ENDBRANCH  22  28
ENDBRANCH  20  22
ENDBRANCH   4  20
BRANCH  10  32
ATOM     32  C   UNL     1      28.364   8.414  -6.790  1.00  0.00     0.093 A
ATOM     33  C   UNL     1      29.225   8.083  -7.824  1.00  0.00     0.035 A
ATOM     34  N   UNL     1      27.059   8.601  -7.076  1.00  0.00    -0.148 NA
ATOM     35  C   UNL     1      28.808   8.317  -9.139  1.00  0.00     0.051 A
ATOM     36  N   UNL     1      26.670   8.863  -8.357  1.00  0.00    -0.132 NA
ATOM     37  C   UNL     1      27.564   8.891  -9.362  1.00  0.00     0.151 A
BRANCH  37  38
ATOM     38  N   UNL     1      27.277   9.661 -10.491  1.00  0.00    -0.353 N
ATOM     39  C   UNL     1      28.246   9.789 -11.583  1.00  0.00     0.134 C
ATOM     40  C   UNL     1      26.346  10.787 -10.228  1.00  0.00     0.138 C
ATOM     41  C   UNL     1      27.796  10.800 -12.616  1.00  0.00     0.158 C
ATOM     42  C   UNL     1      27.154  12.084 -10.168  1.00  0.00     0.128 C
ATOM     43  S   UNL     1      27.699  12.413 -11.858  1.00  0.00     0.156 S
ATOM     44  O   UNL     1      29.049  12.944 -11.788  1.00  0.00    -0.228 OA
ATOM     45  O   UNL     1      26.657  13.147 -12.551  1.00  0.00    -0.228 OA
BRANCH  42  46
ATOM     46  C   UNL     1      26.413  13.297  -9.584  1.00  0.00     0.021 C
BRANCH  46  47
ATOM     47  C   UNL     1      27.202  14.188  -8.608  1.00  0.00     0.002 C
ATOM     48  G   UNL     1      27.405  13.693  -7.166  1.00  0.00     0.000 C
ENDBRANCH  46  47
ENDBRANCH  42  46
ENDBRANCH  37  38
ENDBRANCH  10  32
TORSDOF 2
ENDMDL
MODEL 2
REMARK VINA RESULT:      -9.1      1.093      1.598
REMARK SMILES NC(=O)c1cnc2c3c1[nH]c1cc(ccc13)-c1ccc(nn1)N1CCS(=O)(=O)[C@@H](CCCC3(CC3)[C@H](C(F)(F)F)N2)C1
REMARK SMILES IDX 4 1 5 2 6 3 7 4 8 5 9 6 10 7 11 8 12 9 13 10 14 11 15 12
REMARK SMILES IDX 16 13 2 15 1 16 3 17 41 20 36 22 33 23 34 24 35 25 32 26
REMARK SMILES IDX 37 28 38 29 39 30 40 31 17 32 18 33 22 34 19 35 21 36 20 37
REMARK SMILES IDX 23 38 24 39 42 40 25 41 29 42 26 43 27 44 28 45 30 46 31 47
REMARK H PARENT 10 14 1 18 1 19 41 21
REMARK Flexibility Score:   48.900
ROOT
ATOM      1  C   UNL     1      33.851  10.535  -2.538  1.00  0.00     0.082 A
ATOM      2  C   UNL     1      34.370  11.811  -2.715  1.00  0.00     0.129 A
ATOM      3  N   UNL     1      33.782  12.811  -3.426  1.00  0.00    -0.238 NA
ATOM      4  C   UNL     1      32.585  12.593  -4.017  1.00  0.00     0.136 A
ATOM      5  C   UNL     1      31.913  11.379  -3.760  1.00  0.00     0.051 A
ATOM      6  C   UNL     1      32.590  10.349  -3.111  1.00  0.00     0.065 A
ATOM      7  N   UNL     1      31.809   9.216  -3.230  1.00  0.00    -0.354 N
ATOM      8  C   UNL     1      30.688   9.485  -3.982  1.00  0.00     0.047 A
ATOM      9  C   UNL     1      29.771   8.636  -4.625  1.00  0.00     0.037 A
ATOM     10  C   UNL     1      28.801   9.244  -5.452  1.00  0.00     0.004 A
ATOM     11  C   UNL     1      28.560  10.625  -5.290  1.00  0.00     0.011 A
ATOM     12  C   UNL     1      29.471  11.450  -4.637  1.00  0.00     0.012 A
ATOM     13  C   UNL     1      30.627  10.868  -4.108  1.00  0.00     0.011 A
ATOM     14  H   UNL     1      32.112   8.300  -2.918  1.00  0.00     0.167 HD
ENDROOT
BRANCH   1  15
ATOM     15  C   UNL     1      34.536   9.423  -1.846  1.00  0.00     0.252 C
ATOM     16  N   UNL     1      35.401   9.710  -0.830  1.00  0.00    -0.365 N
ATOM     17  O   UNL     1      34.325   8.259  -2.174  1.00  0.00    -0.269 OA
ATOM     18  H   UNL     1      35.603  10.629  -0.469  1.00  0.00     0.159 HD
ATOM     19  H   UNL     1      35.851   8.924  -0.377  1.00  0.00     0.159 HD
ENDBRANCH   1  15
BRANCH   4  20
ATOM     20  N   UNL     1      32.114  13.552  -4.909  1.00  0.00    -0.358 N
ATOM     21  H   UNL     1      31.648  13.050  -5.665  1.00  0.00     0.162 HD
BRANCH  20  22
ATOM     22  C   UNL     1      31.180  14.601  -4.366  1.00  0.00     0.192 C
BRANCH  22  23
ATOM     23  C   UNL     1      30.345  15.342  -5.462  1.00  0.00    -0.001 C
ATOM     24  C   UNL     1      29.146  14.672  -6.136  1.00  0.00     0.010 C
ATOM     25  C   UNL     1      28.910  15.742  -5.125  1.00  0.00     0.010 C
BRANCH  23  26
ATOM     26  C   UNL     1      31.154  16.321  -6.320  1.00  0.00     0.009 C
ATOM     27  G   UNL     1      30.843  17.814  -6.126  1.00  0.00     0.000 C
ENDBRANCH  23  26
ENDBRANCH  22  23
BRANCH  22  28
ATOM     28  C   UNL     1      31.821  15.506  -3.271  1.00  0.00     0.409 C
ATOM     29  F   UNL     1      31.056  16.609  -3.058  1.00  0.00    -0.169 F
ATOM     30  F   UNL     1      33.068  15.933  -3.559  1.00  0.00    -0.169 F
ATOM     31  F   UNL     1      31.871  14.848  -2.083  1.00  0.00    -0.169 F
ENDBRANCH  22  28
ENDBRANCH  20  22
ENDBRANCH   4  20
BRANCH  10  32
ATOM     32  C   UNL     1      28.299   8.600  -6.701  1.00  0.00     0.093 A
ATOM     33  C   UNL     1      29.131   8.326  -7.775  1.00  0.00     0.035 A
ATOM     34  N   UNL     1      26.985   8.795  -6.938  1.00  0.00    -0.148 NA
ATOM     35  C   UNL     1      28.673   8.623  -9.064  1.00  0.00     0.051 A
ATOM     36  N   UNL     1      26.557   9.117  -8.192  1.00  0.00    -0.132 NA
ATOM     37  C   UNL     1      27.421   9.200  -9.221  1.00  0.00     0.151 A
BRANCH  37  38
ATOM     38  N   UNL     1      27.096  10.024 -10.301  1.00  0.00    -0.353 N
ATOM     39  C   UNL     1      27.909  10.022 -11.521  1.00  0.00     0.134 C
ATOM     40  C   UNL     1      26.394  11.272  -9.913  1.00  0.00     0.138 C
ATOM     41  C   UNL     1      27.476  11.107 -12.484  1.00  0.00     0.158 C
ATOM     42  C   UNL     1      27.389  12.432  -9.976  1.00  0.00     0.128 C
ATOM     43  S   UNL     1      27.733  12.703 -11.728  1.00  0.00     0.156 S
ATOM     44  O   UNL     1      29.144  13.023 -11.854  1.00  0.00    -0.228 OA
ATOM     45  O   UNL     1      26.727  13.597 -12.269  1.00  0.00    -0.228 OA
BRANCH  42  46
ATOM     46  C   UNL     1      26.931  13.733  -9.298  1.00  0.00     0.021 C
BRANCH  46  47
ATOM     47  C   UNL     1      25.650  13.657  -8.448  1.00  0.00     0.002 C
ATOM     48  G   UNL     1      25.791  13.552  -6.921  1.00  0.00     0.000 C
ENDBRANCH  46  47
ENDBRANCH  42  46
ENDBRANCH  37  38
ENDBRANCH  10  32
TORSDOF 2
ENDMDL
MODEL 3
REMARK VINA RESULT:      -8.9      1.077      1.310
REMARK SMILES NC(=O)c1cnc2c3c1[nH]c1cc(ccc13)-c1ccc(nn1)N1CCS(=O)(=O)[C@@H](CCCC3(CC3)[C@H](C(F)(F)F)N2)C1
REMARK SMILES IDX 4 1 5 2 6 3 7 4 8 5 9 6 10 7 11 8 12 9 13 10 14 11 15 12
REMARK SMILES IDX 16 13 2 15 1 16 3 17 41 20 36 22 33 23 34 24 35 25 32 26
REMARK SMILES IDX 37 28 38 29 39 30 40 31 17 32 18 33 22 34 19 35 21 36 20 37
REMARK SMILES IDX 23 38 24 39 42 40 25 41 29 42 26 43 27 44 28 45 30 46 31 47
REMARK H PARENT 10 14 1 18 1 19 41 21
REMARK Flexibility Score:   48.900
ROOT
ATOM      1  C   UNL     1      33.930  10.530  -2.463  1.00  0.00     0.082 A
ATOM      2  C   UNL     1      34.324  11.846  -2.666  1.00  0.00     0.129 A
ATOM      3  N   UNL     1      33.674  12.754  -3.445  1.00  0.00    -0.238 NA
ATOM      4  C   UNL     1      32.538  12.391  -4.084  1.00  0.00     0.136 A
ATOM      5  C   UNL     1      31.982  11.123  -3.811  1.00  0.00     0.051 A
ATOM      6  C   UNL     1      32.726  10.194  -3.089  1.00  0.00     0.065 A
ATOM      7  N   UNL     1      32.072   8.982  -3.200  1.00  0.00    -0.354 N
ATOM      8  C   UNL     1      30.970   9.105  -4.016  1.00  0.00     0.047 A
ATOM      9  C   UNL     1      30.180   8.143  -4.667  1.00  0.00     0.037 A
ATOM     10  C   UNL     1      29.198   8.618  -5.565  1.00  0.00     0.004 A
ATOM     11  C   UNL     1      28.809   9.970  -5.470  1.00  0.00     0.011 A
ATOM     12  C   UNL     1      29.595  10.909  -4.807  1.00  0.00     0.012 A
ATOM     13  C   UNL     1      30.775  10.470  -4.200  1.00  0.00     0.011 A
ATOM     14  H   UNL     1      32.451   8.114  -2.837  1.00  0.00     0.167 HD
ENDROOT
BRANCH   1  15
ATOM     15  C   UNL     1      34.688   9.520  -1.695  1.00  0.00     0.252 C
ATOM     16  N   UNL     1      35.532   9.939  -0.707  1.00  0.00    -0.365 N
ATOM     17  O   UNL     1      34.554   8.324  -1.935  1.00  0.00    -0.269 OA
ATOM     18  H   UNL     1      35.672  10.894  -0.416  1.00  0.00     0.159 HD
ATOM     19  H   UNL     1      36.033   9.220  -0.200  1.00  0.00     0.159 HD
ENDBRANCH   1  15
BRANCH   4  20
ATOM     20  N   UNL     1      32.019  13.264  -5.035  1.00  0.00    -0.358 N
ATOM     21  H   UNL     1      31.105  12.900  -5.304  1.00  0.00     0.162 HD
BRANCH  20  22
ATOM     22  C   UNL     1      31.877  14.711  -4.642  1.00  0.00     0.192 C
BRANCH  22  23
ATOM     23  C   UNL     1      30.708  14.988  -3.639  1.00  0.00    -0.001 C
ATOM     24  C   UNL     1      30.950  15.029  -2.129  1.00  0.00     0.010 C
ATOM     25  C   UNL     1      30.722  16.304  -2.865  1.00  0.00     0.010 C
BRANCH  23  26
ATOM     26  C   UNL     1      29.341  14.469  -4.100  1.00  0.00     0.009 C
ATOM     27  G   UNL     1      28.395  15.507  -4.724  1.00  0.00     0.000 C
ENDBRANCH  23  26
ENDBRANCH  22  23
BRANCH  22  28
ATOM     28  C   UNL     1      31.995  15.701  -5.839  1.00  0.00     0.409 C
ATOM     29  F   UNL     1      32.965  15.294  -6.699  1.00  0.00    -0.169 F
ATOM     30  F   UNL     1      32.279  16.972  -5.486  1.00  0.00    -0.169 F
ATOM     31  F   UNL     1      30.840  15.718  -6.556  1.00  0.00    -0.169 F
ENDBRANCH  22  28
ENDBRANCH  20  22
ENDBRANCH   4  20
BRANCH  10  32
ATOM     32  C   UNL     1      28.830   7.881  -6.809  1.00  0.00     0.093 A
ATOM     33  C   UNL     1      29.388   8.189  -8.040  1.00  0.00     0.035 A
ATOM     34  N   UNL     1      27.606   7.317  -6.780  1.00  0.00    -0.148 NA
ATOM     35  C   UNL     1      28.543   8.256  -9.155  1.00  0.00     0.051 A
ATOM     36  N   UNL     1      26.780   7.419  -7.862  1.00  0.00    -0.132 NA
ATOM     37  C   UNL     1      27.184   8.036  -8.987  1.00  0.00     0.151 A
BRANCH  37  38
ATOM     38  N   UNL     1      26.217   8.600  -9.824  1.00  0.00    -0.353 N
ATOM     39  C   UNL     1      26.370   8.568 -11.281  1.00  0.00     0.134 C
ATOM     40  C   UNL     1      25.477   9.729  -9.208  1.00  0.00     0.138 C
ATOM     41  C   UNL     1      25.297   9.380 -11.975  1.00  0.00     0.158 C
ATOM     42  C   UNL     1      26.015  11.038  -9.786  1.00  0.00     0.128 C
ATOM     43  S   UNL     1      25.459  11.094 -11.504  1.00  0.00     0.156 S
ATOM     44  O   UNL     1      26.535  11.664 -12.295  1.00  0.00    -0.228 OA
ATOM     45  O   UNL     1      24.130  11.674 -11.547  1.00  0.00    -0.228 OA
BRANCH  42  46
ATOM     46  C   UNL     1      25.600  12.312  -9.034  1.00  0.00     0.021 C
BRANCH  46  47
ATOM     47  C   UNL     1      26.721  13.093  -8.322  1.00  0.00     0.002 C
ATOM     48  G   UNL     1      26.905  12.892  -6.809  1.00  0.00     0.000 C
ENDBRANCH  46  47
ENDBRANCH  42  46
ENDBRANCH  37  38
ENDBRANCH  10  32
TORSDOF 2
ENDMDL
MODEL 4
REMARK VINA RESULT:      -8.5      0.509      1.286
REMARK SMILES NC(=O)c1cnc2c3c1[nH]c1cc(ccc13)-c1ccc(nn1)N1CCS(=O)(=O)[C@@H](CCCC3(CC3)[C@H](C(F)(F)F)N2)C1
REMARK SMILES IDX 4 1 5 2 6 3 7 4 8 5 9 6 10 7 11 8 12 9 13 10 14 11 15 12
REMARK SMILES IDX 16 13 2 15 1 16 3 17 41 20 36 22 33 23 34 24 35 25 32 26
REMARK SMILES IDX 37 28 38 29 39 30 40 31 17 32 18 33 22 34 19 35 21 36 20 37
REMARK SMILES IDX 23 38 24 39 42 40 25 41 29 42 26 43 27 44 28 45 30 46 31 47
REMARK H PARENT 10 14 1 18 1 19 41 21
REMARK Flexibility Score:   48.900
ROOT
ATOM      1  C   UNL     1      33.509  10.650  -2.721  1.00  0.00     0.082 A
ATOM      2  C   UNL     1      34.003  11.937  -2.894  1.00  0.00     0.129 A
ATOM      3  N   UNL     1      33.420  12.913  -3.641  1.00  0.00    -0.238 NA
ATOM      4  C   UNL     1      32.254  12.658  -4.278  1.00  0.00     0.136 A
ATOM      5  C   UNL     1      31.602  11.431  -4.032  1.00  0.00     0.051 A
ATOM      6  C   UNL     1      32.278  10.426  -3.343  1.00  0.00     0.065 A
ATOM      7  N   UNL     1      31.530   9.272  -3.480  1.00  0.00    -0.354 N
ATOM      8  C   UNL     1      30.434   9.504  -4.280  1.00  0.00     0.047 A
ATOM      9  C   UNL     1      29.565   8.625  -4.948  1.00  0.00     0.037 A
ATOM     10  C   UNL     1      28.615   9.199  -5.822  1.00  0.00     0.004 A
ATOM     11  C   UNL     1      28.334  10.575  -5.688  1.00  0.00     0.011 A
ATOM     12  C   UNL     1      29.197  11.431  -5.008  1.00  0.00     0.012 A
ATOM     13  C   UNL     1      30.345  10.884  -4.425  1.00  0.00     0.011 A
ATOM     14  H   UNL     1      31.842   8.368  -3.143  1.00  0.00     0.167 HD
ENDROOT
BRANCH   1  15
ATOM     15  C   UNL     1      34.192   9.564  -1.989  1.00  0.00     0.252 C
ATOM     16  N   UNL     1      35.446   9.786  -1.497  1.00  0.00    -0.365 N
ATOM     17  O   UNL     1      33.638   8.482  -1.817  1.00  0.00    -0.269 OA
ATOM     18  H   UNL     1      35.959  10.652  -1.556  1.00  0.00     0.159 HD
ATOM     19  H   UNL     1      35.883   9.020  -0.998  1.00  0.00     0.159 HD
ENDBRANCH   1  15
BRANCH   4  20
ATOM     20  N   UNL     1      31.797  13.594  -5.199  1.00  0.00    -0.358 N
ATOM     21  H   UNL     1      30.848  13.321  -5.454  1.00  0.00     0.162 HD
BRANCH  20  22
ATOM     22  C   UNL     1      31.796  15.040  -4.775  1.00  0.00     0.192 C
BRANCH  22  23
ATOM     23  C   UNL     1      30.602  15.431  -3.843  1.00  0.00    -0.001 C
ATOM     24  C   UNL     1      29.272  15.922  -4.419  1.00  0.00     0.010 C
ATOM     25  C   UNL     1      29.358  14.545  -3.857  1.00  0.00     0.010 C
BRANCH  23  26
ATOM     26  C   UNL     1      31.020  16.016  -2.489  1.00  0.00     0.009 C
ATOM     27  G   UNL     1      31.293  15.003  -1.366  1.00  0.00     0.000 C
ENDBRANCH  23  26
ENDBRANCH  22  23
BRANCH  22  28
ATOM     28  C   UNL     1      32.108  16.034  -5.933  1.00  0.00     0.409 C
ATOM     29  F   UNL     1      31.025  16.180  -6.740  1.00  0.00    -0.169 F
ATOM     30  F   UNL     1      33.145  15.671  -6.716  1.00  0.00    -0.169 F
ATOM     31  F   UNL     1      32.376  17.270  -5.436  1.00  0.00    -0.169 F
ENDBRANCH  22  28
ENDBRANCH  20  22
ENDBRANCH   4  20
BRANCH  10  32
ATOM     32  C   UNL     1      28.181   8.528  -7.082  1.00  0.00     0.093 A
ATOM     33  C   UNL     1      29.080   8.163  -8.071  1.00  0.00     0.035 A
ATOM     34  N   UNL     1      26.904   8.782  -7.435  1.00  0.00    -0.148 NA
ATOM     35  C   UNL     1      28.746   8.426  -9.404  1.00  0.00     0.051 A
ATOM     36  N   UNL     1      26.598   9.071  -8.733  1.00  0.00    -0.132 NA
ATOM     37  C   UNL     1      27.545   9.062  -9.688  1.00  0.00     0.151 A
BRANCH  37  38
ATOM     38  N   UNL     1      27.357   9.853 -10.823  1.00  0.00    -0.353 N
ATOM     39  C   UNL     1      28.425  10.019 -11.812  1.00  0.00     0.134 C
ATOM     40  C   UNL     1      26.387  10.960 -10.629  1.00  0.00     0.138 C
ATOM     41  C   UNL     1      28.063  11.047 -12.863  1.00  0.00     0.158 C
ATOM     42  C   UNL     1      27.163  12.266 -10.463  1.00  0.00     0.128 C
ATOM     43  S   UNL     1      27.865  12.640 -12.084  1.00  0.00     0.156 S
ATOM     44  O   UNL     1      29.193  13.189 -11.871  1.00  0.00    -0.228 OA
ATOM     45  O   UNL     1      26.884  13.375 -12.861  1.00  0.00    -0.228 OA
BRANCH  42  46
ATOM     46  C   UNL     1      26.349  13.455  -9.930  1.00  0.00     0.021 C
BRANCH  46  47
ATOM     47  C   UNL     1      27.107  14.485  -9.072  1.00  0.00     0.002 C
ATOM     48  G   UNL     1      27.722  15.708  -9.771  1.00  0.00     0.000 C
ENDBRANCH  46  47
ENDBRANCH  42  46
ENDBRANCH  37  38
ENDBRANCH  10  32
TORSDOF 2
ENDMDL
MODEL 5
REMARK VINA RESULT:      -8.3      4.422      7.471
REMARK SMILES NC(=O)c1cnc2c3c1[nH]c1cc(ccc13)-c1ccc(nn1)N1CCS(=O)(=O)[C@@H](CCCC3(CC3)[C@H](C(F)(F)F)N2)C1
REMARK SMILES IDX 4 1 5 2 6 3 7 4 8 5 9 6 10 7 11 8 12 9 13 10 14 11 15 12
REMARK SMILES IDX 16 13 2 15 1 16 3 17 41 20 36 22 33 23 34 24 35 25 32 26
REMARK SMILES IDX 37 28 38 29 39 30 40 31 17 32 18 33 22 34 19 35 21 36 20 37
REMARK SMILES IDX 23 38 24 39 42 40 25 41 29 42 26 43 27 44 28 45 30 46 31 47
REMARK H PARENT 10 14 1 18 1 19 41 21
REMARK Flexibility Score:   48.900
ROOT
ATOM      1  C   UNL     1      28.274   7.563  -5.607  1.00  0.00     0.082 A
ATOM      2  C   UNL     1      29.570   7.119  -5.375  1.00  0.00     0.129 A
ATOM      3  N   UNL     1      30.628   7.909  -5.047  1.00  0.00    -0.238 NA
ATOM      4  C   UNL     1      30.447   9.243  -4.912  1.00  0.00     0.136 A
ATOM      5  C   UNL     1      29.135   9.759  -4.976  1.00  0.00     0.051 A
ATOM      6  C   UNL     1      28.099   8.935  -5.409  1.00  0.00     0.065 A
ATOM      7  N   UNL     1      27.004   9.749  -5.630  1.00  0.00    -0.354 N
ATOM      8  C   UNL     1      27.333  11.066  -5.405  1.00  0.00     0.047 A
ATOM      9  C   UNL     1      26.693  12.262  -5.768  1.00  0.00     0.037 A
ATOM     10  C   UNL     1      27.383  13.467  -5.507  1.00  0.00     0.004 A
ATOM     11  C   UNL     1      28.449  13.436  -4.584  1.00  0.00     0.011 A
ATOM     12  C   UNL     1      29.063  12.241  -4.221  1.00  0.00     0.012 A
ATOM     13  C   UNL     1      28.572  11.053  -4.772  1.00  0.00     0.011 A
ATOM     14  H   UNL     1      26.137   9.411  -6.035  1.00  0.00     0.167 HD
ENDROOT
BRANCH   1  15
ATOM     15  C   UNL     1      27.149   6.716  -6.056  1.00  0.00     0.252 C
ATOM     16  N   UNL     1      26.241   6.280  -5.134  1.00  0.00    -0.365 N
ATOM     17  O   UNL     1      27.027   6.417  -7.240  1.00  0.00    -0.269 OA
ATOM     18  H   UNL     1      26.240   6.509  -4.152  1.00  0.00     0.159 HD
ATOM     19  H   UNL     1      25.482   5.704  -5.478  1.00  0.00     0.159 HD
ENDBRANCH   1  15
BRANCH   4  20
ATOM     20  N   UNL     1      31.578  10.044  -4.791  1.00  0.00    -0.358 N
ATOM     21  H   UNL     1      31.411  10.880  -5.352  1.00  0.00     0.162 HD
BRANCH  20  22
ATOM     22  C   UNL     1      31.985  10.459  -3.401  1.00  0.00     0.192 C
BRANCH  22  23
ATOM     23  C   UNL     1      33.019  11.633  -3.362  1.00  0.00    -0.001 C
ATOM     24  C   UNL     1      32.843  12.875  -4.238  1.00  0.00     0.010 C
ATOM     25  C   UNL     1      32.567  12.969  -2.777  1.00  0.00     0.010 C
BRANCH  23  26
ATOM     26  C   UNL     1      34.459  11.199  -3.069  1.00  0.00     0.009 C
ATOM     27  G   UNL     1      35.274  12.123  -2.149  1.00  0.00     0.000 C
ENDBRANCH  23  26
ENDBRANCH  22  23
BRANCH  22  28
ATOM     28  C   UNL     1      32.281   9.261  -2.450  1.00  0.00     0.409 C
ATOM     29  F   UNL     1      31.122   8.722  -1.989  1.00  0.00    -0.169 F
ATOM     30  F   UNL     1      33.033   9.573  -1.375  1.00  0.00    -0.169 F
ATOM     31  F   UNL     1      32.915   8.266  -3.126  1.00  0.00    -0.169 F
ENDBRANCH  22  28
ENDBRANCH  20  22
ENDBRANCH   4  20
BRANCH  10  32
ATOM     32  C   UNL     1      27.285  14.654  -6.406  1.00  0.00     0.093 A
ATOM     33  C   UNL     1      28.337  15.055  -7.215  1.00  0.00     0.035 A
ATOM     34  N   UNL     1      26.390  15.581  -6.007  1.00  0.00    -0.148 NA
ATOM     35  C   UNL     1      28.643  16.419  -7.281  1.00  0.00     0.051 A
ATOM     36  N   UNL     1      26.715  16.906  -6.044  1.00  0.00    -0.132 NA
ATOM     37  C   UNL     1      27.905  17.315  -6.521  1.00  0.00     0.151 A
BRANCH  37  38
ATOM     38  N   UNL     1      28.425  18.530  -6.065  1.00  0.00    -0.353 N
ATOM     39  C   UNL     1      28.771  19.601  -7.004  1.00  0.00     0.134 C
ATOM     40  C   UNL     1      29.189  18.417  -4.798  1.00  0.00     0.138 C
ATOM     41  C   UNL     1      29.470  20.750  -6.310  1.00  0.00     0.158 C
ATOM     42  C   UNL     1      30.682  18.476  -5.121  1.00  0.00     0.128 C
ATOM     43  S   UNL     1      31.017  20.175  -5.632  1.00  0.00     0.156 S
ATOM     44  O   UNL     1      31.978  20.125  -6.719  1.00  0.00    -0.228 OA
ATOM     45  O   UNL     1      31.287  20.974  -4.451  1.00  0.00    -0.228 OA
BRANCH  42  46
ATOM     46  C   UNL     1      31.621  18.050  -3.982  1.00  0.00     0.021 C
BRANCH  46  47
ATOM     47  C   UNL     1      31.681  16.546  -3.659  1.00  0.00     0.002 C
ATOM     48  G   UNL     1      30.905  16.028  -2.436  1.00  0.00     0.000 C
ENDBRANCH  46  47
ENDBRANCH  42  46
ENDBRANCH  37  38
ENDBRANCH  10  32
TORSDOF 2
ENDMDL
MODEL 6
REMARK VINA RESULT:      -8.2      3.848      7.066
REMARK SMILES NC(=O)c1cnc2c3c1[nH]c1cc(ccc13)-c1ccc(nn1)N1CCS(=O)(=O)[C@@H](CCCC3(CC3)[C@H](C(F)(F)F)N2)C1
REMARK SMILES IDX 4 1 5 2 6 3 7 4 8 5 9 6 10 7 11 8 12 9 13 10 14 11 15 12
REMARK SMILES IDX 16 13 2 15 1 16 3 17 41 20 36 22 33 23 34 24 35 25 32 26
REMARK SMILES IDX 37 28 38 29 39 30 40 31 17 32 18 33 22 34 19 35 21 36 20 37
REMARK SMILES IDX 23 38 24 39 42 40 25 41 29 42 26 43 27 44 28 45 30 46 31 47
REMARK H PARENT 10 14 1 18 1 19 41 21
REMARK Flexibility Score:   48.900
ROOT
ATOM      1  C   UNL     1      29.132   8.084  -6.479  1.00  0.00     0.082 A
ATOM      2  C   UNL     1      30.122   7.887  -5.525  1.00  0.00     0.129 A
ATOM      3  N   UNL     1      30.516   8.799  -4.595  1.00  0.00    -0.238 NA
ATOM      4  C   UNL     1      29.913  10.009  -4.552  1.00  0.00     0.136 A
ATOM      5  C   UNL     1      28.793  10.238  -5.380  1.00  0.00     0.051 A
ATOM      6  C   UNL     1      28.486   9.319  -6.380  1.00  0.00     0.065 A
ATOM      7  N   UNL     1      27.536   9.910  -7.191  1.00  0.00    -0.354 N
ATOM      8  C   UNL     1      27.276  11.194  -6.767  1.00  0.00     0.047 A
ATOM      9  C   UNL     1      26.645  12.276  -7.403  1.00  0.00     0.037 A
ATOM     10  C   UNL     1      26.675  13.521  -6.736  1.00  0.00     0.004 A
ATOM     11  C   UNL     1      26.972  13.530  -5.358  1.00  0.00     0.011 A
ATOM     12  C   UNL     1      27.583  12.443  -4.738  1.00  0.00     0.012 A
ATOM     13  C   UNL     1      27.868  11.316  -5.515  1.00  0.00     0.011 A
ATOM     14  H   UNL     1      27.201   9.486  -8.050  1.00  0.00     0.167 HD
ENDROOT
BRANCH   1  15
ATOM     15  C   UNL     1      28.773   7.128  -7.547  1.00  0.00     0.252 C
ATOM     16  N   UNL     1      28.141   5.966  -7.208  1.00  0.00    -0.365 N
ATOM     17  O   UNL     1      29.029   7.378  -8.721  1.00  0.00    -0.269 OA
ATOM     18  H   UNL     1      27.857   5.697  -6.279  1.00  0.00     0.159 HD
ATOM     19  H   UNL     1      27.908   5.335  -7.966  1.00  0.00     0.159 HD
ENDBRANCH   1  15
BRANCH   4  20
ATOM     20  N   UNL     1      30.477  10.990  -3.743  1.00  0.00    -0.358 N
ATOM     21  H   UNL     1      30.651  10.561  -2.834  1.00  0.00     0.162 HD
BRANCH  20  22
ATOM     22  C   UNL     1      31.744  11.644  -4.229  1.00  0.00     0.192 C
BRANCH  22  23
ATOM     23  C   UNL     1      32.965  11.462  -3.269  1.00  0.00    -0.001 C
ATOM     24  C   UNL     1      33.133  10.196  -2.426  1.00  0.00     0.010 C
ATOM     25  C   UNL     1      34.003  10.398  -3.619  1.00  0.00     0.010 C
BRANCH  23  26
ATOM     26  C   UNL     1      33.489  12.767  -2.657  1.00  0.00     0.009 C
ATOM     27  G   UNL     1      34.975  12.785  -2.265  1.00  0.00     0.000 C
ENDBRANCH  23  26
ENDBRANCH  22  23
BRANCH  22  28
ATOM     28  C   UNL     1      31.531  13.080  -4.795  1.00  0.00     0.409 C
ATOM     29  F   UNL     1      30.598  13.068  -5.783  1.00  0.00    -0.169 F
ATOM     30  F   UNL     1      32.643  13.651  -5.302  1.00  0.00    -0.169 F
ATOM     31  F   UNL     1      31.045  13.903  -3.829  1.00  0.00    -0.169 F
ENDBRANCH  22  28
ENDBRANCH  20  22
ENDBRANCH   4  20
BRANCH  10  32
ATOM     32  C   UNL     1      26.769  14.817  -7.469  1.00  0.00     0.093 A
ATOM     33  C   UNL     1      27.949  15.252  -8.050  1.00  0.00     0.035 A
ATOM     34  N   UNL     1      25.863  15.740  -7.085  1.00  0.00    -0.148 NA
ATOM     35  C   UNL     1      28.320  16.592  -7.882  1.00  0.00     0.051 A
ATOM     36  N   UNL     1      26.246  17.035  -6.892  1.00  0.00    -0.132 NA
ATOM     37  C   UNL     1      27.511  17.427  -7.125  1.00  0.00     0.151 A
BRANCH  37  38
ATOM     38  N   UNL     1      28.004  18.538  -6.436  1.00  0.00    -0.353 N
ATOM     39  C   UNL     1      28.387  19.759  -7.150  1.00  0.00     0.134 C
ATOM     40  C   UNL     1      28.712  18.196  -5.177  1.00  0.00     0.138 C
ATOM     41  C   UNL     1      29.049  20.762  -6.230  1.00  0.00     0.158 C
ATOM     42  C   UNL     1      30.218  18.307  -5.418  1.00  0.00     0.128 C
ATOM     43  S   UNL     1      30.568  20.070  -5.599  1.00  0.00     0.156 S
ATOM     44  O   UNL     1      31.576  20.213  -6.634  1.00  0.00    -0.228 OA
ATOM     45  O   UNL     1      30.781  20.642  -4.283  1.00  0.00    -0.228 OA
BRANCH  42  46
ATOM     46  C   UNL     1      31.108  17.679  -4.334  1.00  0.00     0.021 C
BRANCH  46  47
ATOM     47  C   UNL     1      32.307  16.844  -4.820  1.00  0.00     0.002 C
ATOM     48  G   UNL     1      33.493  17.575  -5.470  1.00  0.00     0.000 C
ENDBRANCH  46  47
ENDBRANCH  42  46
ENDBRANCH  37  38
ENDBRANCH  10  32
TORSDOF 2
ENDMDL
MODEL 7
REMARK VINA RESULT:      -8.2      4.223      6.198
REMARK SMILES NC(=O)c1cnc2c3c1[nH]c1cc(ccc13)-c1ccc(nn1)N1CCS(=O)(=O)[C@@H](CCCC3(CC3)[C@H](C(F)(F)F)N2)C1
REMARK SMILES IDX 4 1 5 2 6 3 7 4 8 5 9 6 10 7 11 8 12 9 13 10 14 11 15 12
REMARK SMILES IDX 16 13 2 15 1 16 3 17 41 20 36 22 33 23 34 24 35 25 32 26
REMARK SMILES IDX 37 28 38 29 39 30 40 31 17 32 18 33 22 34 19 35 21 36 20 37
REMARK SMILES IDX 23 38 24 39 42 40 25 41 29 42 26 43 27 44 28 45 30 46 31 47
REMARK H PARENT 10 14 1 18 1 19 41 21
REMARK Flexibility Score:   48.900
ROOT
ATOM      1  C   UNL     1      30.937   8.401  -4.238  1.00  0.00     0.082 A
ATOM      2  C   UNL     1      32.274   8.559  -3.891  1.00  0.00     0.129 A
ATOM      3  N   UNL     1      32.917   9.749  -3.748  1.00  0.00    -0.238 NA
ATOM      4  C   UNL     1      32.235  10.902  -3.938  1.00  0.00     0.136 A
ATOM      5  C   UNL     1      30.839  10.839  -4.140  1.00  0.00     0.051 A
ATOM      6  C   UNL     1      30.240   9.604  -4.376  1.00  0.00     0.065 A
ATOM      7  N   UNL     1      28.949   9.858  -4.799  1.00  0.00    -0.354 N
ATOM      8  C   UNL     1      28.734  11.214  -4.890  1.00  0.00     0.047 A
ATOM      9  C   UNL     1      27.732  11.957  -5.537  1.00  0.00     0.037 A
ATOM     10  C   UNL     1      27.887  13.361  -5.563  1.00  0.00     0.004 A
ATOM     11  C   UNL     1      28.783  13.948  -4.646  1.00  0.00     0.011 A
ATOM     12  C   UNL     1      29.761  13.196  -4.001  1.00  0.00     0.012 A
ATOM     13  C   UNL     1      29.813  11.822  -4.258  1.00  0.00     0.011 A
ATOM     14  H   UNL     1      28.320   9.131  -5.122  1.00  0.00     0.167 HD
ENDROOT
BRANCH   1  15
ATOM     15  C   UNL     1      30.267   7.108  -4.486  1.00  0.00     0.252 C
ATOM     16  N   UNL     1      30.615   6.027  -3.728  1.00  0.00    -0.365 N
ATOM     17  O   UNL     1      29.404   7.009  -5.353  1.00  0.00    -0.269 OA
ATOM     18  H   UNL     1      31.281   6.027  -2.971  1.00  0.00     0.159 HD
ATOM     19  H   UNL     1      30.133   5.158  -3.924  1.00  0.00     0.159 HD
ENDBRANCH   1  15
BRANCH   4  20
ATOM     20  N   UNL     1      32.961  12.087  -3.998  1.00  0.00    -0.358 N
ATOM     21  H   UNL     1      32.423  12.737  -4.570  1.00  0.00     0.162 HD
BRANCH  20  22
ATOM     22  C   UNL     1      33.308  12.752  -2.691  1.00  0.00     0.192 C
BRANCH  22  23
ATOM     23  C   UNL     1      32.937  14.271  -2.630  1.00  0.00    -0.001 C
ATOM     24  C   UNL     1      33.925  15.349  -3.081  1.00  0.00     0.010 C
ATOM     25  C   UNL     1      32.757  15.021  -3.947  1.00  0.00     0.010 C
BRANCH  23  26
ATOM     26  C   UNL     1      31.991  14.646  -1.483  1.00  0.00     0.009 C
ATOM     27  G   UNL     1      30.897  15.674  -1.814  1.00  0.00     0.000 C
ENDBRANCH  23  26
ENDBRANCH  22  23
BRANCH  22  28
ATOM     28  C   UNL     1      34.719  12.374  -2.149  1.00  0.00     0.409 C
ATOM     29  F   UNL     1      34.922  12.926  -0.924  1.00  0.00    -0.169 F
ATOM     30  F   UNL     1      35.742  12.761  -2.938  1.00  0.00    -0.169 F
ATOM     31  F   UNL     1      34.814  11.029  -1.976  1.00  0.00    -0.169 F
ENDBRANCH  22  28
ENDBRANCH  20  22
ENDBRANCH   4  20
BRANCH  10  32
ATOM     32  C   UNL     1      27.445  14.192  -6.721  1.00  0.00     0.093 A
ATOM     33  C   UNL     1      28.325  14.986  -7.438  1.00  0.00     0.035 A
ATOM     34  N   UNL     1      26.143  14.543  -6.688  1.00  0.00    -0.148 NA
ATOM     35  C   UNL     1      27.926  16.284  -7.778  1.00  0.00     0.051 A
ATOM     36  N   UNL     1      25.771  15.821  -6.988  1.00  0.00    -0.132 NA
ATOM     37  C   UNL     1      26.681  16.738  -7.367  1.00  0.00     0.151 A
BRANCH  37  38
ATOM     38  N   UNL     1      26.404  18.088  -7.140  1.00  0.00    -0.353 N
ATOM     39  C   UNL     1      25.792  18.918  -8.181  1.00  0.00     0.134 C
ATOM     40  C   UNL     1      27.314  18.730  -6.159  1.00  0.00     0.138 C
ATOM     41  C   UNL     1      25.740  20.376  -7.778  1.00  0.00     0.158 C
ATOM     42  C   UNL     1      28.327  19.585  -6.921  1.00  0.00     0.128 C
ATOM     43  S   UNL     1      27.404  20.990  -7.577  1.00  0.00     0.156 S
ATOM     44  O   UNL     1      27.925  21.278  -8.902  1.00  0.00    -0.228 OA
ATOM     45  O   UNL     1      27.354  22.030  -6.567  1.00  0.00    -0.228 OA
BRANCH  42  46
ATOM     46  C   UNL     1      29.540  20.058  -6.103  1.00  0.00     0.021 C
BRANCH  46  47
ATOM     47  C   UNL     1      30.147  19.045  -5.115  1.00  0.00     0.002 C
ATOM     48  G   UNL     1      31.485  19.392  -4.442  1.00  0.00     0.000 C
ENDBRANCH  46  47
ENDBRANCH  42  46
ENDBRANCH  37  38
ENDBRANCH  10  32
TORSDOF 2
ENDMDL
MODEL 8
REMARK VINA RESULT:      -8.1      1.627      2.137
REMARK SMILES NC(=O)c1cnc2c3c1[nH]c1cc(ccc13)-c1ccc(nn1)N1CCS(=O)(=O)[C@@H](CCCC3(CC3)[C@H](C(F)(F)F)N2)C1
REMARK SMILES IDX 4 1 5 2 6 3 7 4 8 5 9 6 10 7 11 8 12 9 13 10 14 11 15 12
REMARK SMILES IDX 16 13 2 15 1 16 3 17 41 20 36 22 33 23 34 24 35 25 32 26
REMARK SMILES IDX 37 28 38 29 39 30 40 31 17 32 18 33 22 34 19 35 21 36 20 37
REMARK SMILES IDX 23 38 24 39 42 40 25 41 29 42 26 43 27 44 28 45 30 46 31 47
REMARK H PARENT 10 14 1 18 1 19 41 21
REMARK Flexibility Score:   48.900
ROOT
ATOM      1  C   UNL     1      33.743  10.494  -2.507  1.00  0.00     0.082 A
ATOM      2  C   UNL     1      34.010  11.855  -2.585  1.00  0.00     0.129 A
ATOM      3  N   UNL     1      33.254  12.772  -3.249  1.00  0.00    -0.238 NA
ATOM      4  C   UNL     1      32.134  12.371  -3.893  1.00  0.00     0.136 A
ATOM      5  C   UNL     1      31.704  11.036  -3.737  1.00  0.00     0.051 A
ATOM      6  C   UNL     1      32.553  10.112  -3.133  1.00  0.00     0.065 A
ATOM      7  N   UNL     1      32.007   8.862  -3.351  1.00  0.00    -0.354 N
ATOM      8  C   UNL     1      30.871   8.963  -4.121  1.00  0.00     0.047 A
ATOM      9  C   UNL     1      30.147   8.001  -4.846  1.00  0.00     0.037 A
ATOM     10  C   UNL     1      29.096   8.470  -5.665  1.00  0.00     0.004 A
ATOM     11  C   UNL     1      28.591   9.764  -5.423  1.00  0.00     0.011 A
ATOM     12  C   UNL     1      29.312  10.701  -4.688  1.00  0.00     0.012 A
ATOM     13  C   UNL     1      30.548  10.315  -4.159  1.00  0.00     0.011 A
ATOM     14  H   UNL     1      32.475   8.001  -3.088  1.00  0.00     0.167 HD
ENDROOT
BRANCH   1  15
ATOM     15  C   UNL     1      34.615   9.488  -1.866  1.00  0.00     0.252 C
ATOM     16  N   UNL     1      35.434   9.878  -0.846  1.00  0.00    -0.365 N
ATOM     17  O   UNL     1      34.597   8.319  -2.238  1.00  0.00    -0.269 OA
ATOM     18  H   UNL     1      35.484  10.804  -0.450  1.00  0.00     0.159 HD
ATOM     19  H   UNL     1      36.016   9.162  -0.428  1.00  0.00     0.159 HD
ENDBRANCH   1  15
BRANCH   4  20
ATOM     20  N   UNL     1      31.506  13.281  -4.736  1.00  0.00    -0.358 N
ATOM     21  H   UNL     1      31.096  12.745  -5.500  1.00  0.00     0.162 HD
BRANCH  20  22
ATOM     22  C   UNL     1      30.446  14.166  -4.132  1.00  0.00     0.192 C
BRANCH  22  23
ATOM     23  C   UNL     1      29.419  14.731  -5.168  1.00  0.00    -0.001 C
ATOM     24  C   UNL     1      29.793  15.872  -6.117  1.00  0.00     0.010 C
ATOM     25  C   UNL     1      29.686  14.485  -6.652  1.00  0.00     0.010 C
BRANCH  23  26
ATOM     26  C   UNL     1      27.958  14.674  -4.708  1.00  0.00     0.009 C
ATOM     27  G   UNL     1      27.116  13.513  -5.260  1.00  0.00     0.000 C
ENDBRANCH  23  26
ENDBRANCH  22  23
BRANCH  22  28
ATOM     28  C   UNL     1      30.999  15.189  -3.096  1.00  0.00     0.409 C
ATOM     29  F   UNL     1      32.165  15.730  -3.537  1.00  0.00    -0.169 F
ATOM     30  F   UNL     1      31.235  14.673  -1.872  1.00  0.00    -0.169 F
ATOM     31  F   UNL     1      30.135  16.228  -2.949  1.00  0.00    -0.169 F
ENDBRANCH  22  28
ENDBRANCH  20  22
ENDBRANCH   4  20
BRANCH  10  32
ATOM     32  C   UNL     1      28.753   7.830  -6.969  1.00  0.00     0.093 A
ATOM     33  C   UNL     1      29.248   8.300  -8.174  1.00  0.00     0.035 A
ATOM     34  N   UNL     1      27.578   7.167  -6.970  1.00  0.00    -0.148 NA
ATOM     35  C   UNL     1      28.370   8.405  -9.259  1.00  0.00     0.051 A
ATOM     36  N   UNL     1      26.716   7.306  -8.019  1.00  0.00    -0.132 NA
ATOM     37  C   UNL     1      27.037   8.061  -9.086  1.00  0.00     0.151 A
BRANCH  37  38
ATOM     38  N   UNL     1      26.006   8.621  -9.843  1.00  0.00    -0.353 N
ATOM     39  C   UNL     1      26.121   8.747 -11.298  1.00  0.00     0.134 C
ATOM     40  C   UNL     1      25.194   9.619  -9.103  1.00  0.00     0.138 C
ATOM     41  C   UNL     1      24.967   9.532 -11.886  1.00  0.00     0.158 C
ATOM     42  C   UNL     1      25.608  11.019  -9.556  1.00  0.00     0.128 C
ATOM     43  S   UNL     1      25.003  11.198 -11.248  1.00  0.00     0.156 S
ATOM     44  O   UNL     1      26.007  11.932 -11.997  1.00  0.00    -0.228 OA
ATOM     45  O   UNL     1      23.631  11.667 -11.206  1.00  0.00    -0.228 OA
BRANCH  42  46
ATOM     46  C   UNL     1      25.113  12.174  -8.670  1.00  0.00     0.021 C
BRANCH  46  47
ATOM     47  C   UNL     1      25.752  13.554  -8.909  1.00  0.00     0.002 C
ATOM     48  G   UNL     1      27.267  13.625  -9.163  1.00  0.00     0.000 C
ENDBRANCH  46  47
ENDBRANCH  42  46
ENDBRANCH  37  38
ENDBRANCH  10  32
TORSDOF 2
ENDMDL
MODEL 9
REMARK VINA RESULT:      -8.1      4.194      5.899
REMARK SMILES NC(=O)c1cnc2c3c1[nH]c1cc(ccc13)-c1ccc(nn1)N1CCS(=O)(=O)[C@@H](CCCC3(CC3)[C@H](C(F)(F)F)N2)C1
REMARK SMILES IDX 4 1 5 2 6 3 7 4 8 5 9 6 10 7 11 8 12 9 13 10 14 11 15 12
REMARK SMILES IDX 16 13 2 15 1 16 3 17 41 20 36 22 33 23 34 24 35 25 32 26
REMARK SMILES IDX 37 28 38 29 39 30 40 31 17 32 18 33 22 34 19 35 21 36 20 37
REMARK SMILES IDX 23 38 24 39 42 40 25 41 29 42 26 43 27 44 28 45 30 46 31 47
REMARK H PARENT 10 14 1 18 1 19 41 21
REMARK Flexibility Score:   48.900
ROOT
ATOM      1  C   UNL     1      32.503  12.952  -3.526  1.00  0.00     0.082 A
ATOM      2  C   UNL     1      33.343  13.970  -3.089  1.00  0.00     0.129 A
ATOM      3  N   UNL     1      33.073  15.301  -3.160  1.00  0.00    -0.238 NA
ATOM      4  C   UNL     1      31.895  15.716  -3.680  1.00  0.00     0.136 A
ATOM      5  C   UNL     1      30.919  14.749  -4.004  1.00  0.00     0.051 A
ATOM      6  C   UNL     1      31.271  13.401  -4.008  1.00  0.00     0.065 A
ATOM      7  N   UNL     1      30.231  12.717  -4.608  1.00  0.00    -0.354 N
ATOM      8  C   UNL     1      29.261  13.596  -5.032  1.00  0.00     0.047 A
ATOM      9  C   UNL     1      28.193  13.443  -5.932  1.00  0.00     0.037 A
ATOM     10  C   UNL     1      27.460  14.605  -6.266  1.00  0.00     0.004 A
ATOM     11  C   UNL     1      27.576  15.729  -5.422  1.00  0.00     0.011 A
ATOM     12  C   UNL     1      28.631  15.859  -4.523  1.00  0.00     0.012 A
ATOM     13  C   UNL     1      29.567  14.822  -4.450  1.00  0.00     0.011 A
ATOM     14  H   UNL     1      30.270  11.725  -4.817  1.00  0.00     0.167 HD
ENDROOT
BRANCH   1  15
ATOM     15  C   UNL     1      32.838  11.513  -3.536  1.00  0.00     0.252 C
ATOM     16  N   UNL     1      33.985  11.098  -2.923  1.00  0.00    -0.365 N
ATOM     17  O   UNL     1      32.093  10.703  -4.078  1.00  0.00    -0.269 OA
ATOM     18  H   UNL     1      34.632  11.686  -2.421  1.00  0.00     0.159 HD
ATOM     19  H   UNL     1      34.182  10.105  -2.947  1.00  0.00     0.159 HD
ENDBRANCH   1  15
BRANCH   4  20
ATOM     20  N   UNL     1      31.738  17.074  -3.937  1.00  0.00    -0.358 N
ATOM     21  H   UNL     1      32.004  17.570  -3.085  1.00  0.00     0.162 HD
BRANCH  20  22
ATOM     22  C   UNL     1      32.501  17.651  -5.100  1.00  0.00     0.192 C
BRANCH  22  23
ATOM     23  C   UNL     1      32.460  19.213  -5.180  1.00  0.00    -0.001 C
ATOM     24  C   UNL     1      33.720  20.026  -5.484  1.00  0.00     0.010 C
ATOM     25  C   UNL     1      32.681  19.870  -6.541  1.00  0.00     0.010 C
BRANCH  23  26
ATOM     26  C   UNL     1      31.430  19.867  -4.253  1.00  0.00     0.009 C
ATOM     27  G   UNL     1      31.114  21.347  -4.524  1.00  0.00     0.000 C
ENDBRANCH  23  26
ENDBRANCH  22  23
BRANCH  22  28
ATOM     28  C   UNL     1      32.265  16.895  -6.442  1.00  0.00     0.409 C
ATOM     29  F   UNL     1      32.940  17.501  -7.454  1.00  0.00    -0.169 F
ATOM     30  F   UNL     1      30.972  16.813  -6.816  1.00  0.00    -0.169 F
ATOM     31  F   UNL     1      32.757  15.630  -6.366  1.00  0.00    -0.169 F
ENDBRANCH  22  28
ENDBRANCH  20  22
ENDBRANCH   4  20
BRANCH  10  32
ATOM     32  C   UNL     1      26.879  14.820  -7.623  1.00  0.00     0.093 A
ATOM     33  C   UNL     1      27.627  15.326  -8.674  1.00  0.00     0.035 A
ATOM     34  N   UNL     1      25.544  15.013  -7.632  1.00  0.00    -0.148 NA
ATOM     35  C   UNL     1      27.052  16.311  -9.486  1.00  0.00     0.051 A
ATOM     36  N   UNL     1      25.001  15.999  -8.402  1.00  0.00    -0.132 NA
ATOM     37  C   UNL     1      25.772  16.761  -9.200  1.00  0.00     0.151 A
BRANCH  37  38
ATOM     38  N   UNL     1      25.328  18.044  -9.529  1.00  0.00    -0.353 N
ATOM     39  C   UNL     1      25.488  18.571 -10.887  1.00  0.00     0.134 C
ATOM     40  C   UNL     1      25.342  18.994  -8.389  1.00  0.00     0.138 C
ATOM     41  C   UNL     1      25.095  20.031 -10.972  1.00  0.00     0.158 C
ATOM     42  C   UNL     1      26.550  19.919  -8.538  1.00  0.00     0.128 C
ATOM     43  S   UNL     1      26.187  20.995  -9.942  1.00  0.00     0.156 S
ATOM     44  O   UNL     1      27.424  21.189 -10.678  1.00  0.00    -0.228 OA
ATOM     45  O   UNL     1      25.427  22.138  -9.471  1.00  0.00    -0.228 OA
BRANCH  42  46
ATOM     46  C   UNL     1      26.908  20.744  -7.292  1.00  0.00     0.021 C
BRANCH  46  47
ATOM     47  C   UNL     1      28.282  20.472  -6.652  1.00  0.00     0.002 C
ATOM     48  G   UNL     1      28.748  19.014  -6.512  1.00  0.00     0.000 C
ENDBRANCH  46  47
ENDBRANCH  42  46
ENDBRANCH  37  38
ENDBRANCH  10  32
TORSDOF 2
ENDMDL
