MODEL 1
REMARK VINA RESULT:     -10.6      0.000      0.000
REMARK SMILES Fc1cc2cc(F)c1CN1CCO[C@@H](CSCC3(CCNCC3)n3cc(cn3)-c3cnc4cccc-2c4n3)C1
REMARK SMILES IDX 1 1 2 2 3 3 4 4 5 5 6 6 7 7 8 8 9 9 10 10 11 11 39 12 12 13
REMARK SMILES IDX 14 14 13 15 15 16 16 17 17 18 36 20 35 21 37 22 34 23 38 24
REMARK SMILES IDX 32 25 33 26 29 27 31 28 30 29 26 30 25 31 27 32 24 33 28 34
REMARK SMILES IDX 18 35 19 36 23 37 20 38 22 39 21 40
REMARK H PARENT 21 41
REMARK Flexibility Score:   78.900
ROOT
ATOM      1  F   UNL     1      31.973  14.937  -6.327  1.00  0.00    -0.207 F
ATOM      2  C   UNL     1      32.093  14.816  -4.997  1.00  0.00     0.131 A
ATOM      3  C   UNL     1      32.949  13.838  -4.493  1.00  0.00     0.048 A
ATOM      4  C   UNL     1      33.075  13.630  -3.110  1.00  0.00    -0.010 A
ATOM      5  C   UNL     1      32.358  14.483  -2.258  1.00  0.00     0.048 A
ATOM      6  C   UNL     1      31.517  15.470  -2.780  1.00  0.00     0.131 A
ATOM      7  F   UNL     1      30.856  16.260  -1.922  1.00  0.00    -0.207 F
ATOM      8  C   UNL     1      31.352  15.641  -4.155  1.00  0.00     0.038 A
ENDROOT
BRANCH   8   9
ATOM      9  C   UNL     1      30.410  16.670  -4.716  1.00  0.00     0.126 C
BRANCH   9  10
ATOM     10  N   UNL     1      29.001  16.465  -4.341  1.00  0.00    -0.294 NA
ATOM     11  C   UNL     1      28.190  17.671  -4.619  1.00  0.00     0.113 C
ATOM     12  C   UNL     1      28.400  15.271  -4.989  1.00  0.00     0.117 C
ATOM     13  C   UNL     1      27.326  17.554  -5.885  1.00  0.00     0.176 C
ATOM     14  C   UNL     1      26.856  15.368  -5.013  1.00  0.00     0.142 C
ATOM     15  O   UNL     1      26.400  16.462  -5.834  1.00  0.00    -0.375 OA
BRANCH  14  16
ATOM     16  C   UNL     1      26.132  14.081  -5.445  1.00  0.00     0.103 C
BRANCH  16  17
ATOM     17  S   UNL     1      27.118  12.895  -6.441  1.00  0.00    -0.157 SA
BRANCH  17  18
ATOM     18  C   UNL     1      26.992  13.707  -8.078  1.00  0.00     0.100 C
ATOM     19  G   UNL     1      25.576  14.182  -8.533  1.00  0.00     0.000 C
ENDBRANCH  17  18
ENDBRANCH  16  17
ENDBRANCH  14  16
ENDBRANCH   9  10
ENDBRANCH   8   9
BRANCH   4  20
ATOM     20  C   UNL     1      33.883  12.507  -2.576  1.00  0.00     0.010 A
ATOM     21  C   UNL     1      35.089  12.759  -1.902  1.00  0.00     0.011 A
ATOM     22  C   UNL     1      33.441  11.175  -2.721  1.00  0.00     0.097 A
ATOM     23  C   UNL     1      35.842  11.711  -1.383  1.00  0.00     0.003 A
ATOM     24  N   UNL     1      32.284  10.910  -3.360  1.00  0.00    -0.244 NA
ATOM     25  C   UNL     1      34.205  10.109  -2.186  1.00  0.00     0.089 A
ATOM     26  C   UNL     1      35.393  10.399  -1.528  1.00  0.00     0.030 A
ATOM     27  C   UNL     1      31.882   9.626  -3.482  1.00  0.00     0.092 A
ATOM     28  N   UNL     1      33.806   8.824  -2.300  1.00  0.00    -0.252 NA
ATOM     29  C   UNL     1      32.636   8.601  -2.951  1.00  0.00     0.140 A
BRANCH  27  30
ATOM     30  C   UNL     1      30.631   9.440  -4.184  1.00  0.00     0.040 A
ATOM     31  C   UNL     1      30.345   8.308  -4.919  1.00  0.00     0.119 A
ATOM     32  C   UNL     1      29.490  10.247  -4.357  1.00  0.00     0.145 A
ATOM     33  N   UNL     1      29.125   8.504  -5.509  1.00  0.00    -0.265 N
ATOM     34  N   UNL     1      28.577   9.687  -5.158  1.00  0.00    -0.180 NA
BRANCH  33  35
ATOM     35  C   UNL     1      28.485   7.585  -6.496  1.00  0.00     0.074 C
ATOM     36  C   UNL     1      28.959   6.138  -6.169  1.00  0.00     0.047 C
ATOM     37  C   UNL     1      26.933   7.660  -6.423  1.00  0.00     0.047 C
ATOM     38  C   UNL     1      27.842   5.107  -6.292  1.00  0.00     0.083 C
ATOM     39  C   UNL     1      26.402   6.817  -5.267  1.00  0.00     0.083 C
ATOM     40  N   UNL     1      26.710   5.392  -5.415  1.00  0.00    -0.317 NA
ATOM     41  H   UNL     1      26.859   4.984  -4.492  1.00  0.00     0.122 HD
ATOM     42  G   UNL     1      28.965   8.083  -7.896  1.00  0.00     0.000 C
ENDBRANCH  33  35
ENDBRANCH  27  30
ENDBRANCH   4  20
TORSDOF 0
ENDMDL
MODEL 2
REMARK VINA RESULT:     -10.4      0.832      1.426
REMARK SMILES Fc1cc2cc(F)c1CN1CCO[C@@H](CSCC3(CCNCC3)n3cc(cn3)-c3cnc4cccc-2c4n3)C1
REMARK SMILES IDX 1 1 2 2 3 3 4 4 5 5 6 6 7 7 8 8 9 9 10 10 11 11 39 12 12 13
REMARK SMILES IDX 14 14 13 15 15 16 16 17 17 18 36 20 35 21 37 22 34 23 38 24
REMARK SMILES IDX 32 25 33 26 29 27 31 28 30 29 26 30 25 31 27 32 24 33 28 34
REMARK SMILES IDX 18 35 19 36 23 37 20 38 22 39 21 40
REMARK H PARENT 21 41
REMARK Flexibility Score:   78.900
ROOT
ATOM      1  F   UNL     1      31.888  14.850  -6.372  1.00  0.00    -0.207 F
ATOM      2  C   UNL     1      32.013  14.740  -5.042  1.00  0.00     0.131 A
ATOM      3  C   UNL     1      32.873  13.768  -4.533  1.00  0.00     0.048 A
ATOM      4  C   UNL     1      33.005  13.573  -3.148  1.00  0.00    -0.010 A
ATOM      5  C   UNL     1      32.290  14.433  -2.301  1.00  0.00     0.048 A
ATOM      6  C   UNL     1      31.446  15.414  -2.828  1.00  0.00     0.131 A
ATOM      7  F   UNL     1      30.787  16.211  -1.974  1.00  0.00    -0.207 F
ATOM      8  C   UNL     1      31.275  15.573  -4.203  1.00  0.00     0.038 A
ENDROOT
BRANCH   8   9
ATOM      9  C   UNL     1      30.330  16.596  -4.770  1.00  0.00     0.126 C
BRANCH   9  10
ATOM     10  N   UNL     1      28.925  16.405  -4.371  1.00  0.00    -0.294 NA
ATOM     11  C   UNL     1      28.118  17.613  -4.652  1.00  0.00     0.113 C
ATOM     12  C   UNL     1      28.306  15.207  -4.993  1.00  0.00     0.117 C
ATOM     13  C   UNL     1      27.233  17.484  -5.902  1.00  0.00     0.176 C
ATOM     14  C   UNL     1      26.764  15.313  -4.993  1.00  0.00     0.142 C
ATOM     15  O   UNL     1      26.301  16.400  -5.822  1.00  0.00    -0.375 OA
BRANCH  14  16
ATOM     16  C   UNL     1      26.024  14.025  -5.397  1.00  0.00     0.103 C
BRANCH  16  17
ATOM     17  S   UNL     1      25.453  13.934  -7.139  1.00  0.00    -0.157 SA
BRANCH  17  18
ATOM     18  C   UNL     1      26.887  13.065  -7.875  1.00  0.00     0.100 C
ATOM     19  G   UNL     1      27.223  13.378  -9.368  1.00  0.00     0.000 C
ENDBRANCH  17  18
ENDBRANCH  16  17
ENDBRANCH  14  16
ENDBRANCH   9  10
ENDBRANCH   8   9
BRANCH   4  20
ATOM     20  C   UNL     1      33.815  12.455  -2.607  1.00  0.00     0.010 A
ATOM     21  C   UNL     1      35.017  12.716  -1.928  1.00  0.00     0.011 A
ATOM     22  C   UNL     1      33.380  11.121  -2.750  1.00  0.00     0.097 A
ATOM     23  C   UNL     1      35.773  11.672  -1.403  1.00  0.00     0.003 A
ATOM     24  N   UNL     1      32.227  10.848  -3.394  1.00  0.00    -0.244 NA
ATOM     25  C   UNL     1      34.148  10.060  -2.209  1.00  0.00     0.089 A
ATOM     26  C   UNL     1      35.331  10.358  -1.547  1.00  0.00     0.030 A
ATOM     27  C   UNL     1      31.832   9.562  -3.513  1.00  0.00     0.092 A
ATOM     28  N   UNL     1      33.755   8.772  -2.320  1.00  0.00    -0.252 NA
ATOM     29  C   UNL     1      32.589   8.542  -2.976  1.00  0.00     0.140 A
BRANCH  27  30
ATOM     30  C   UNL     1      30.585   9.367  -4.220  1.00  0.00     0.040 A
ATOM     31  C   UNL     1      30.244   8.175  -4.823  1.00  0.00     0.119 A
ATOM     32  C   UNL     1      29.500  10.214  -4.515  1.00  0.00     0.145 A
ATOM     33  N   UNL     1      29.050   8.370  -5.463  1.00  0.00    -0.265 N
ATOM     34  N   UNL     1      28.568   9.617  -5.268  1.00  0.00    -0.180 NA
BRANCH  33  35
ATOM     35  C   UNL     1      28.373   7.381  -6.351  1.00  0.00     0.074 C
ATOM     36  C   UNL     1      26.877   7.800  -6.470  1.00  0.00     0.047 C
ATOM     37  C   UNL     1      29.023   7.343  -7.764  1.00  0.00     0.047 C
ATOM     38  C   UNL     1      26.329   7.644  -7.885  1.00  0.00     0.083 C
ATOM     39  C   UNL     1      28.514   8.494  -8.628  1.00  0.00     0.083 C
ATOM     40  N   UNL     1      27.070   8.427  -8.869  1.00  0.00    -0.317 NA
ATOM     41  H   UNL     1      26.697   9.375  -8.929  1.00  0.00     0.122 HD
ATOM     42  G   UNL     1      28.565   5.997  -5.653  1.00  0.00     0.000 C
ENDBRANCH  33  35
ENDBRANCH  27  30
ENDBRANCH   4  20
TORSDOF 0
ENDMDL
MODEL 3
REMARK VINA RESULT:     -10.4      2.517      3.649
REMARK SMILES Fc1cc2cc(F)c1CN1CCO[C@@H](CSCC3(CCNCC3)n3cc(cn3)-c3cnc4cccc-2c4n3)C1
REMARK SMILES IDX 1 1 2 2 3 3 4 4 5 5 6 6 7 7 8 8 9 9 10 10 11 11 39 12 12 13
REMARK SMILES IDX 14 14 13 15 15 16 16 17 17 18 36 20 35 21 37 22 34 23 38 24
REMARK SMILES IDX 32 25 33 26 29 27 31 28 30 29 26 30 25 31 27 32 24 33 28 34
REMARK SMILES IDX 18 35 19 36 23 37 20 38 22 39 21 40
REMARK H PARENT 21 41
REMARK Flexibility Score:   78.900
ROOT
ATOM      1  F   UNL     1      31.346  15.104  -6.183  1.00  0.00    -0.207 F
ATOM      2  C   UNL     1      31.601  14.960  -4.875  1.00  0.00     0.131 A
ATOM      3  C   UNL     1      32.535  14.003  -4.482  1.00  0.00     0.048 A
ATOM      4  C   UNL     1      32.806  13.771  -3.123  1.00  0.00    -0.010 A
ATOM      5  C   UNL     1      32.149  14.581  -2.184  1.00  0.00     0.048 A
ATOM      6  C   UNL     1      31.228  15.547  -2.596  1.00  0.00     0.131 A
ATOM      7  F   UNL     1      30.629  16.295  -1.658  1.00  0.00    -0.207 F
ATOM      8  C   UNL     1      30.921  15.741  -3.944  1.00  0.00     0.038 A
ENDROOT
BRANCH   8   9
ATOM      9  C   UNL     1      29.893  16.747  -4.384  1.00  0.00     0.126 C
BRANCH   9  10
ATOM     10  N   UNL     1      30.326  17.598  -5.505  1.00  0.00    -0.294 NA
ATOM     11  C   UNL     1      29.197  17.906  -6.412  1.00  0.00     0.113 C
ATOM     12  C   UNL     1      30.992  18.847  -5.058  1.00  0.00     0.117 C
ATOM     13  C   UNL     1      28.636  19.326  -6.235  1.00  0.00     0.176 C
ATOM     14  C   UNL     1      30.960  19.924  -6.167  1.00  0.00     0.142 C
ATOM     15  O   UNL     1      29.613  20.349  -6.463  1.00  0.00    -0.375 OA
BRANCH  14  16
ATOM     16  C   UNL     1      31.828  21.165  -5.893  1.00  0.00     0.103 C
BRANCH  16  17
ATOM     17  S   UNL     1      33.554  20.842  -5.361  1.00  0.00    -0.157 SA
BRANCH  17  18
ATOM     18  C   UNL     1      34.133  19.875  -6.805  1.00  0.00     0.100 C
ATOM     19  G   UNL     1      34.301  18.334  -6.612  1.00  0.00     0.000 C
ENDBRANCH  17  18
ENDBRANCH  16  17
ENDBRANCH  14  16
ENDBRANCH   9  10
ENDBRANCH   8   9
BRANCH   4  20
ATOM     20  C   UNL     1      33.699  12.666  -2.698  1.00  0.00     0.010 A
ATOM     21  C   UNL     1      34.942  12.949  -2.108  1.00  0.00     0.011 A
ATOM     22  C   UNL     1      33.304  11.323  -2.864  1.00  0.00     0.097 A
ATOM     23  C   UNL     1      35.777  11.917  -1.692  1.00  0.00     0.003 A
ATOM     24  N   UNL     1      32.113  11.030  -3.424  1.00  0.00    -0.244 NA
ATOM     25  C   UNL     1      34.153  10.273  -2.433  1.00  0.00     0.089 A
ATOM     26  C   UNL     1      35.374  10.592  -1.856  1.00  0.00     0.030 A
ATOM     27  C   UNL     1      31.758   9.734  -3.567  1.00  0.00     0.092 A
ATOM     28  N   UNL     1      33.801   8.976  -2.569  1.00  0.00    -0.252 NA
ATOM     29  C   UNL     1      32.594   8.725  -3.138  1.00  0.00     0.140 A
BRANCH  27  30
ATOM     30  C   UNL     1      30.465   9.517  -4.179  1.00  0.00     0.040 A
ATOM     31  C   UNL     1      30.158   8.383  -4.901  1.00  0.00     0.119 A
ATOM     32  C   UNL     1      29.293  10.293  -4.262  1.00  0.00     0.145 A
ATOM     33  N   UNL     1      28.895   8.549  -5.400  1.00  0.00    -0.265 N
ATOM     34  N   UNL     1      28.340   9.713  -5.000  1.00  0.00    -0.180 NA
BRANCH  33  35
ATOM     35  C   UNL     1      28.211   7.620  -6.347  1.00  0.00     0.074 C
ATOM     36  C   UNL     1      26.677   7.753  -6.112  1.00  0.00     0.047 C
ATOM     37  C   UNL     1      28.548   7.962  -7.827  1.00  0.00     0.047 C
ATOM     38  C   UNL     1      25.876   7.747  -7.411  1.00  0.00     0.083 C
ATOM     39  C   UNL     1      27.695   9.126  -8.323  1.00  0.00     0.083 C
ATOM     40  N   UNL     1      26.262   8.822  -8.319  1.00  0.00    -0.317 NA
ATOM     41  H   UNL     1      25.740   9.674  -8.110  1.00  0.00     0.122 HD
ATOM     42  G   UNL     1      28.760   6.199  -6.004  1.00  0.00     0.000 C
ENDBRANCH  33  35
ENDBRANCH  27  30
ENDBRANCH   4  20
TORSDOF 0
ENDMDL
MODEL 4
REMARK VINA RESULT:     -10.2      0.574      1.433
REMARK SMILES Fc1cc2cc(F)c1CN1CCO[C@@H](CSCC3(CCNCC3)n3cc(cn3)-c3cnc4cccc-2c4n3)C1
REMARK SMILES IDX 1 1 2 2 3 3 4 4 5 5 6 6 7 7 8 8 9 9 10 10 11 11 39 12 12 13
REMARK SMILES IDX 14 14 13 15 15 16 16 17 17 18 36 20 35 21 37 22 34 23 38 24
REMARK SMILES IDX 32 25 33 26 29 27 31 28 30 29 26 30 25 31 27 32 24 33 28 34
REMARK SMILES IDX 18 35 19 36 23 37 20 38 22 39 21 40
REMARK H PARENT 21 41
REMARK Flexibility Score:   78.900
ROOT
ATOM      1  F   UNL     1      30.494  16.263  -2.035  1.00  0.00    -0.207 F
ATOM      2  C   UNL     1      31.180  15.528  -2.921  1.00  0.00     0.131 A
ATOM      3  C   UNL     1      31.909  14.435  -2.455  1.00  0.00     0.048 A
ATOM      4  C   UNL     1      32.688  13.658  -3.329  1.00  0.00    -0.010 A
ATOM      5  C   UNL     1      32.652  13.986  -4.692  1.00  0.00     0.048 A
ATOM      6  C   UNL     1      31.902  15.074  -5.145  1.00  0.00     0.131 A
ATOM      7  F   UNL     1      31.902  15.343  -6.459  1.00  0.00    -0.207 F
ATOM      8  C   UNL     1      31.171  15.877  -4.269  1.00  0.00     0.038 A
ENDROOT
BRANCH   8   9
ATOM      9  C   UNL     1      30.403  17.077  -4.750  1.00  0.00     0.126 C
BRANCH   9  10
ATOM     10  N   UNL     1      28.958  17.018  -4.475  1.00  0.00    -0.294 NA
ATOM     11  C   UNL     1      28.243  18.147  -5.110  1.00  0.00     0.113 C
ATOM     12  C   UNL     1      28.348  15.724  -4.873  1.00  0.00     0.117 C
ATOM     13  C   UNL     1      27.485  17.754  -6.389  1.00  0.00     0.176 C
ATOM     14  C   UNL     1      26.820  15.864  -5.067  1.00  0.00     0.142 C
ATOM     15  O   UNL     1      26.498  16.740  -6.167  1.00  0.00    -0.375 OA
BRANCH  14  16
ATOM     16  C   UNL     1      26.063  14.536  -5.247  1.00  0.00     0.103 C
BRANCH  16  17
ATOM     17  S   UNL     1      27.088  13.074  -5.670  1.00  0.00    -0.157 SA
BRANCH  17  18
ATOM     18  C   UNL     1      26.837  13.051  -7.484  1.00  0.00     0.100 C
ATOM     19  G   UNL     1      26.673  11.656  -8.166  1.00  0.00     0.000 C
ENDBRANCH  17  18
ENDBRANCH  16  17
ENDBRANCH  14  16
ENDBRANCH   9  10
ENDBRANCH   8   9
BRANCH   4  20
ATOM     20  C   UNL     1      33.566  12.579  -2.817  1.00  0.00     0.010 A
ATOM     21  C   UNL     1      34.769  12.895  -2.163  1.00  0.00     0.011 A
ATOM     22  C   UNL     1      33.197  11.226  -2.962  1.00  0.00     0.097 A
ATOM     23  C   UNL     1      35.588  11.888  -1.665  1.00  0.00     0.003 A
ATOM     24  N   UNL     1      32.045  10.900  -3.582  1.00  0.00    -0.244 NA
ATOM     25  C   UNL     1      34.029  10.202  -2.448  1.00  0.00     0.089 A
ATOM     26  C   UNL     1      35.211  10.554  -1.810  1.00  0.00     0.030 A
ATOM     27  C   UNL     1      31.713   9.596  -3.704  1.00  0.00     0.092 A
ATOM     28  N   UNL     1      33.700   8.896  -2.563  1.00  0.00    -0.252 NA
ATOM     29  C   UNL     1      32.533   8.612  -3.194  1.00  0.00     0.140 A
BRANCH  27  30
ATOM     30  C   UNL     1      30.462   9.344  -4.385  1.00  0.00     0.040 A
ATOM     31  C   UNL     1      30.196   8.166  -5.053  1.00  0.00     0.119 A
ATOM     32  C   UNL     1      29.302  10.115  -4.593  1.00  0.00     0.145 A
ATOM     33  N   UNL     1      28.968   8.303  -5.643  1.00  0.00    -0.265 N
ATOM     34  N   UNL     1      28.396   9.491  -5.354  1.00  0.00    -0.180 NA
BRANCH  33  35
ATOM     35  C   UNL     1      28.342   7.317  -6.573  1.00  0.00     0.074 C
ATOM     36  C   UNL     1      29.139   5.984  -6.453  1.00  0.00     0.047 C
ATOM     37  C   UNL     1      26.847   7.070  -6.220  1.00  0.00     0.047 C
ATOM     38  C   UNL     1      28.238   4.753  -6.459  1.00  0.00     0.083 C
ATOM     39  C   UNL     1      26.717   6.086  -5.060  1.00  0.00     0.083 C
ATOM     40  N   UNL     1      27.259   4.762  -5.376  1.00  0.00    -0.317 NA
ATOM     41  H   UNL     1      27.656   4.353  -4.530  1.00  0.00     0.122 HD
ATOM     42  G   UNL     1      28.442   7.964  -7.991  1.00  0.00     0.000 C
ENDBRANCH  33  35
ENDBRANCH  27  30
ENDBRANCH   4  20
TORSDOF 0
ENDMDL
MODEL 5
REMARK VINA RESULT:     -10.0      0.890      1.711
REMARK SMILES Fc1cc2cc(F)c1CN1CCO[C@@H](CSCC3(CCNCC3)n3cc(cn3)-c3cnc4cccc-2c4n3)C1
REMARK SMILES IDX 1 1 2 2 3 3 4 4 5 5 6 6 7 7 8 8 9 9 10 10 11 11 39 12 12 13
REMARK SMILES IDX 14 14 13 15 15 16 16 17 17 18 36 20 35 21 37 22 34 23 38 24
REMARK SMILES IDX 32 25 33 26 29 27 31 28 30 29 26 30 25 31 27 32 24 33 28 34
REMARK SMILES IDX 18 35 19 36 23 37 20 38 22 39 21 40
REMARK H PARENT 21 41
REMARK Flexibility Score:   78.900
ROOT
ATOM      1  F   UNL     1      30.698  16.252  -2.024  1.00  0.00    -0.207 F
ATOM      2  C   UNL     1      31.401  15.496  -2.879  1.00  0.00     0.131 A
ATOM      3  C   UNL     1      32.102  14.401  -2.376  1.00  0.00     0.048 A
ATOM      4  C   UNL     1      32.897  13.603  -3.216  1.00  0.00    -0.010 A
ATOM      5  C   UNL     1      32.906  13.912  -4.584  1.00  0.00     0.048 A
ATOM      6  C   UNL     1      32.184  15.003  -5.074  1.00  0.00     0.131 A
ATOM      7  F   UNL     1      32.227  15.253  -6.391  1.00  0.00    -0.207 F
ATOM      8  C   UNL     1      31.437  15.826  -4.232  1.00  0.00     0.038 A
ENDROOT
BRANCH   8   9
ATOM      9  C   UNL     1      30.699  17.029  -4.752  1.00  0.00     0.126 C
BRANCH   9  10
ATOM     10  N   UNL     1      29.290  16.772  -5.090  1.00  0.00    -0.294 NA
ATOM     11  C   UNL     1      28.437  17.936  -4.761  1.00  0.00     0.113 C
ATOM     12  C   UNL     1      29.101  16.370  -6.508  1.00  0.00     0.117 C
ATOM     13  C   UNL     1      28.035  18.770  -5.988  1.00  0.00     0.176 C
ATOM     14  C   UNL     1      27.644  16.614  -6.967  1.00  0.00     0.142 C
ATOM     15  O   UNL     1      27.309  18.017  -6.966  1.00  0.00    -0.375 OA
BRANCH  14  16
ATOM     16  C   UNL     1      27.286  16.013  -8.337  1.00  0.00     0.103 C
BRANCH  16  17
ATOM     17  S   UNL     1      27.275  14.181  -8.439  1.00  0.00    -0.157 SA
BRANCH  17  18
ATOM     18  C   UNL     1      25.954  13.825  -7.220  1.00  0.00     0.100 C
ATOM     19  G   UNL     1      26.390  13.610  -5.736  1.00  0.00     0.000 C
ENDBRANCH  17  18
ENDBRANCH  16  17
ENDBRANCH  14  16
ENDBRANCH   9  10
ENDBRANCH   8   9
BRANCH   4  20
ATOM     20  C   UNL     1      33.745  12.520  -2.663  1.00  0.00     0.010 A
ATOM     21  C   UNL     1      34.939  12.830  -1.991  1.00  0.00     0.011 A
ATOM     22  C   UNL     1      33.356  11.170  -2.788  1.00  0.00     0.097 A
ATOM     23  C   UNL     1      35.731  11.820  -1.454  1.00  0.00     0.003 A
ATOM     24  N   UNL     1      32.211  10.851  -3.425  1.00  0.00    -0.244 NA
ATOM     25  C   UNL     1      34.160  10.144  -2.235  1.00  0.00     0.089 A
ATOM     26  C   UNL     1      35.333  10.490  -1.579  1.00  0.00     0.030 A
ATOM     27  C   UNL     1      31.860   9.550  -3.527  1.00  0.00     0.092 A
ATOM     28  N   UNL     1      33.811   8.842  -2.329  1.00  0.00    -0.252 NA
ATOM     29  C   UNL     1      32.652   8.564  -2.979  1.00  0.00     0.140 A
BRANCH  27  30
ATOM     30  C   UNL     1      30.619   9.304  -4.228  1.00  0.00     0.040 A
ATOM     31  C   UNL     1      30.247   8.055  -4.679  1.00  0.00     0.119 A
ATOM     32  C   UNL     1      29.567  10.139  -4.653  1.00  0.00     0.145 A
ATOM     33  N   UNL     1      29.071   8.203  -5.363  1.00  0.00    -0.265 N
ATOM     34  N   UNL     1      28.629   9.479  -5.341  1.00  0.00    -0.180 NA
BRANCH  33  35
ATOM     35  C   UNL     1      28.376   7.128  -6.130  1.00  0.00     0.074 C
ATOM     36  C   UNL     1      28.653   5.778  -5.405  1.00  0.00     0.047 C
ATOM     37  C   UNL     1      26.842   7.380  -6.204  1.00  0.00     0.047 C
ATOM     38  C   UNL     1      27.427   4.873  -5.349  1.00  0.00     0.083 C
ATOM     39  C   UNL     1      26.155   6.932  -4.918  1.00  0.00     0.083 C
ATOM     40  N   UNL     1      26.294   5.495  -4.670  1.00  0.00    -0.317 NA
ATOM     41  H   UNL     1      26.345   5.332  -3.664  1.00  0.00     0.122 HD
ATOM     42  G   UNL     1      28.983   7.186  -7.568  1.00  0.00     0.000 C
ENDBRANCH  33  35
ENDBRANCH  27  30
ENDBRANCH   4  20
TORSDOF 0
ENDMDL
MODEL 6
REMARK VINA RESULT:     -10.0      0.893      1.933
REMARK SMILES Fc1cc2cc(F)c1CN1CCO[C@@H](CSCC3(CCNCC3)n3cc(cn3)-c3cnc4cccc-2c4n3)C1
REMARK SMILES IDX 1 1 2 2 3 3 4 4 5 5 6 6 7 7 8 8 9 9 10 10 11 11 39 12 12 13
REMARK SMILES IDX 14 14 13 15 15 16 16 17 17 18 36 20 35 21 37 22 34 23 38 24
REMARK SMILES IDX 32 25 33 26 29 27 31 28 30 29 26 30 25 31 27 32 24 33 28 34
REMARK SMILES IDX 18 35 19 36 23 37 20 38 22 39 21 40
REMARK H PARENT 21 41
REMARK Flexibility Score:   78.900
ROOT
ATOM      1  F   UNL     1      30.857  16.316  -2.063  1.00  0.00    -0.207 F
ATOM      2  C   UNL     1      31.503  15.499  -2.907  1.00  0.00     0.131 A
ATOM      3  C   UNL     1      32.216  14.424  -2.377  1.00  0.00     0.048 A
ATOM      4  C   UNL     1      32.954  13.565  -3.208  1.00  0.00    -0.010 A
ATOM      5  C   UNL     1      32.893  13.791  -4.591  1.00  0.00     0.048 A
ATOM      6  C   UNL     1      32.159  14.863  -5.107  1.00  0.00     0.131 A
ATOM      7  F   UNL     1      32.132  15.033  -6.437  1.00  0.00    -0.207 F
ATOM      8  C   UNL     1      31.469  15.747  -4.277  1.00  0.00     0.038 A
ENDROOT
BRANCH   8   9
ATOM      9  C   UNL     1      30.720  16.928  -4.829  1.00  0.00     0.126 C
BRANCH   9  10
ATOM     10  N   UNL     1      29.289  16.949  -4.482  1.00  0.00    -0.294 NA
ATOM     11  C   UNL     1      28.621  18.151  -5.030  1.00  0.00     0.113 C
ATOM     12  C   UNL     1      28.575  15.717  -4.904  1.00  0.00     0.117 C
ATOM     13  C   UNL     1      27.777  17.868  -6.283  1.00  0.00     0.176 C
ATOM     14  C   UNL     1      27.052  15.965  -5.012  1.00  0.00     0.142 C
ATOM     15  O   UNL     1      26.736  16.910  -6.055  1.00  0.00    -0.375 OA
BRANCH  14  16
ATOM     16  C   UNL     1      26.201  14.698  -5.210  1.00  0.00     0.103 C
BRANCH  16  17
ATOM     17  S   UNL     1      25.545  14.422  -6.901  1.00  0.00    -0.157 SA
BRANCH  17  18
ATOM     18  C   UNL     1      26.838  13.293  -7.540  1.00  0.00     0.100 C
ATOM     19  G   UNL     1      27.515  12.328  -6.515  1.00  0.00     0.000 C
ENDBRANCH  17  18
ENDBRANCH  16  17
ENDBRANCH  14  16
ENDBRANCH   9  10
ENDBRANCH   8   9
BRANCH   4  20
ATOM     20  C   UNL     1      33.818  12.504  -2.637  1.00  0.00     0.010 A
ATOM     21  C   UNL     1      35.009  12.842  -1.974  1.00  0.00     0.011 A
ATOM     22  C   UNL     1      33.445  11.147  -2.735  1.00  0.00     0.097 A
ATOM     23  C   UNL     1      35.815  11.852  -1.421  1.00  0.00     0.003 A
ATOM     24  N   UNL     1      32.303  10.801  -3.362  1.00  0.00    -0.244 NA
ATOM     25  C   UNL     1      34.263  10.142  -2.165  1.00  0.00     0.089 A
ATOM     26  C   UNL     1      35.434  10.515  -1.519  1.00  0.00     0.030 A
ATOM     27  C   UNL     1      31.967   9.495  -3.438  1.00  0.00     0.092 A
ATOM     28  N   UNL     1      33.930   8.834  -2.232  1.00  0.00    -0.252 NA
ATOM     29  C   UNL     1      32.773   8.529  -2.873  1.00  0.00     0.140 A
BRANCH  27  30
ATOM     30  C   UNL     1      30.727   9.220  -4.131  1.00  0.00     0.040 A
ATOM     31  C   UNL     1      30.458   8.009  -4.733  1.00  0.00     0.119 A
ATOM     32  C   UNL     1      29.585   9.994  -4.412  1.00  0.00     0.145 A
ATOM     33  N   UNL     1      29.246   8.127  -5.358  1.00  0.00    -0.265 N
ATOM     34  N   UNL     1      28.686   9.339  -5.154  1.00  0.00    -0.180 NA
BRANCH  33  35
ATOM     35  C   UNL     1      28.624   7.096  -6.241  1.00  0.00     0.074 C
ATOM     36  C   UNL     1      27.085   7.332  -6.229  1.00  0.00     0.047 C
ATOM     37  C   UNL     1      29.161   7.195  -7.698  1.00  0.00     0.047 C
ATOM     38  C   UNL     1      26.449   7.164  -7.605  1.00  0.00     0.083 C
ATOM     39  C   UNL     1      28.449   8.306  -8.465  1.00  0.00     0.083 C
ATOM     40  N   UNL     1      27.010   8.071  -8.602  1.00  0.00    -0.317 NA
ATOM     41  H   UNL     1      26.522   8.966  -8.588  1.00  0.00     0.122 HD
ATOM     42  G   UNL     1      29.037   5.721  -5.626  1.00  0.00     0.000 C
ENDBRANCH  33  35
ENDBRANCH  27  30
ENDBRANCH   4  20
TORSDOF 0
ENDMDL
MODEL 7
REMARK VINA RESULT:      -9.8      1.049      1.955
REMARK SMILES Fc1cc2cc(F)c1CN1CCO[C@@H](CSCC3(CCNCC3)n3cc(cn3)-c3cnc4cccc-2c4n3)C1
REMARK SMILES IDX 1 1 2 2 3 3 4 4 5 5 6 6 7 7 8 8 9 9 10 10 11 11 39 12 12 13
REMARK SMILES IDX 14 14 13 15 15 16 16 17 17 18 36 20 35 21 37 22 34 23 38 24
REMARK SMILES IDX 32 25 33 26 29 27 31 28 30 29 26 30 25 31 27 32 24 33 28 34
REMARK SMILES IDX 18 35 19 36 23 37 20 38 22 39 21 40
REMARK H PARENT 21 41
REMARK Flexibility Score:   78.900
ROOT
ATOM      1  F   UNL     1      30.384  15.898  -2.187  1.00  0.00    -0.207 F
ATOM      2  C   UNL     1      31.165  15.148  -2.976  1.00  0.00     0.131 A
ATOM      3  C   UNL     1      31.984  14.188  -2.382  1.00  0.00     0.048 A
ATOM      4  C   UNL     1      32.861  13.408  -3.153  1.00  0.00    -0.010 A
ATOM      5  C   UNL     1      32.835  13.587  -4.544  1.00  0.00     0.048 A
ATOM      6  C   UNL     1      31.996  14.541  -5.125  1.00  0.00     0.131 A
ATOM      7  F   UNL     1      32.008  14.670  -6.460  1.00  0.00    -0.207 F
ATOM      8  C   UNL     1      31.163  15.352  -4.354  1.00  0.00     0.038 A
ENDROOT
BRANCH   8   9
ATOM      9  C   UNL     1      30.295  16.412  -4.975  1.00  0.00     0.126 C
BRANCH   9  10
ATOM     10  N   UNL     1      28.882  16.351  -4.566  1.00  0.00    -0.294 NA
ATOM     11  C   UNL     1      28.154  17.577  -4.962  1.00  0.00     0.113 C
ATOM     12  C   UNL     1      28.186  15.142  -5.076  1.00  0.00     0.117 C
ATOM     13  C   UNL     1      27.261  17.389  -6.199  1.00  0.00     0.176 C
ATOM     14  C   UNL     1      26.653  15.347  -5.093  1.00  0.00     0.142 C
ATOM     15  O   UNL     1      26.261  16.379  -6.022  1.00  0.00    -0.375 OA
BRANCH  14  16
ATOM     16  C   UNL     1      25.831  14.078  -5.378  1.00  0.00     0.103 C
BRANCH  16  17
ATOM     17  S   UNL     1      25.191  13.898  -7.088  1.00  0.00    -0.157 SA
BRANCH  17  18
ATOM     18  C   UNL     1      26.712  13.294  -7.911  1.00  0.00     0.100 C
ATOM     19  G   UNL     1      27.292  14.167  -9.070  1.00  0.00     0.000 C
ENDBRANCH  17  18
ENDBRANCH  16  17
ENDBRANCH  14  16
ENDBRANCH   9  10
ENDBRANCH   8   9
BRANCH   4  20
ATOM     20  C   UNL     1      33.826  12.482  -2.512  1.00  0.00     0.010 A
ATOM     21  C   UNL     1      34.929  12.988  -1.804  1.00  0.00     0.011 A
ATOM     22  C   UNL     1      33.637  11.087  -2.588  1.00  0.00     0.097 A
ATOM     23  C   UNL     1      35.827  12.125  -1.185  1.00  0.00     0.003 A
ATOM     24  N   UNL     1      32.583  10.580  -3.258  1.00  0.00    -0.244 NA
ATOM     25  C   UNL     1      34.549  10.210  -1.952  1.00  0.00     0.089 A
ATOM     26  C   UNL     1      35.628  10.747  -1.263  1.00  0.00     0.030 A
ATOM     27  C   UNL     1      32.424   9.239  -3.312  1.00  0.00     0.092 A
ATOM     28  N   UNL     1      34.393   8.869  -1.997  1.00  0.00    -0.252 NA
ATOM     29  C   UNL     1      33.319   8.401  -2.683  1.00  0.00     0.140 A
BRANCH  27  30
ATOM     30  C   UNL     1      31.266   8.789  -4.054  1.00  0.00     0.040 A
ATOM     31  C   UNL     1      30.334   9.655  -4.586  1.00  0.00     0.119 A
ATOM     32  C   UNL     1      30.767   7.516  -4.387  1.00  0.00     0.145 A
ATOM     33  N   UNL     1      29.343   8.893  -5.143  1.00  0.00    -0.265 N
ATOM     34  N   UNL     1      29.604   7.572  -5.044  1.00  0.00    -0.180 NA
BRANCH  33  35
ATOM     35  C   UNL     1      28.069   9.417  -5.719  1.00  0.00     0.074 C
ATOM     36  C   UNL     1      28.113   9.175  -7.257  1.00  0.00     0.047 C
ATOM     37  C   UNL     1      26.830   8.702  -5.108  1.00  0.00     0.047 C
ATOM     38  C   UNL     1      26.776   8.708  -7.821  1.00  0.00     0.083 C
ATOM     39  C   UNL     1      26.598   7.350  -5.778  1.00  0.00     0.083 C
ATOM     40  N   UNL     1      26.305   7.469  -7.209  1.00  0.00    -0.317 NA
ATOM     41  H   UNL     1      26.689   6.659  -7.697  1.00  0.00     0.122 HD
ATOM     42  G   UNL     1      28.036  10.932  -5.339  1.00  0.00     0.000 C
ENDBRANCH  33  35
ENDBRANCH  27  30
ENDBRANCH   4  20
TORSDOF 0
ENDMDL
MODEL 8
REMARK VINA RESULT:      -9.8      2.420      3.539
REMARK SMILES Fc1cc2cc(F)c1CN1CCO[C@@H](CSCC3(CCNCC3)n3cc(cn3)-c3cnc4cccc-2c4n3)C1
REMARK SMILES IDX 1 1 2 2 3 3 4 4 5 5 6 6 7 7 8 8 9 9 10 10 11 11 39 12 12 13
REMARK SMILES IDX 14 14 13 15 15 16 16 17 17 18 36 20 35 21 37 22 34 23 38 24
REMARK SMILES IDX 32 25 33 26 29 27 31 28 30 29 26 30 25 31 27 32 24 33 28 34
REMARK SMILES IDX 18 35 19 36 23 37 20 38 22 39 21 40
REMARK H PARENT 21 41
REMARK Flexibility Score:   78.900
ROOT
ATOM      1  F   UNL     1      30.784  13.649  -6.162  1.00  0.00    -0.207 F
ATOM      2  C   UNL     1      31.240  13.922  -4.931  1.00  0.00     0.131 A
ATOM      3  C   UNL     1      32.275  13.142  -4.417  1.00  0.00     0.048 A
ATOM      4  C   UNL     1      32.758  13.349  -3.115  1.00  0.00    -0.010 A
ATOM      5  C   UNL     1      32.205  14.407  -2.379  1.00  0.00     0.048 A
ATOM      6  C   UNL     1      31.180  15.190  -2.915  1.00  0.00     0.131 A
ATOM      7  F   UNL     1      30.688  16.190  -2.170  1.00  0.00    -0.207 F
ATOM      8  C   UNL     1      30.665  14.951  -4.189  1.00  0.00     0.038 A
ENDROOT
BRANCH   8   9
ATOM      9  C   UNL     1      29.528  15.763  -4.748  1.00  0.00     0.126 C
BRANCH   9  10
ATOM     10  N   UNL     1      29.954  16.924  -5.548  1.00  0.00    -0.294 NA
ATOM     11  C   UNL     1      28.908  17.320  -6.518  1.00  0.00     0.113 C
ATOM     12  C   UNL     1      30.356  18.083  -4.712  1.00  0.00     0.117 C
ATOM     13  C   UNL     1      28.114  18.565  -6.092  1.00  0.00     0.176 C
ATOM     14  C   UNL     1      30.289  19.402  -5.517  1.00  0.00     0.142 C
ATOM     15  O   UNL     1      28.938  19.722  -5.909  1.00  0.00    -0.375 OA
BRANCH  14  16
ATOM     16  C   UNL     1      30.911  20.623  -4.818  1.00  0.00     0.103 C
BRANCH  16  17
ATOM     17  S   UNL     1      32.068  21.629  -5.826  1.00  0.00    -0.157 SA
BRANCH  17  18
ATOM     18  C   UNL     1      33.570  20.591  -5.677  1.00  0.00     0.100 C
ATOM     19  G   UNL     1      33.802  19.508  -6.778  1.00  0.00     0.000 C
ENDBRANCH  17  18
ENDBRANCH  16  17
ENDBRANCH  14  16
ENDBRANCH   9  10
ENDBRANCH   8   9
BRANCH   4  20
ATOM     20  C   UNL     1      33.765  12.437  -2.519  1.00  0.00     0.010 A
ATOM     21  C   UNL     1      34.877  12.960  -1.839  1.00  0.00     0.011 A
ATOM     22  C   UNL     1      33.609  11.039  -2.612  1.00  0.00     0.097 A
ATOM     23  C   UNL     1      35.816  12.110  -1.263  1.00  0.00     0.003 A
ATOM     24  N   UNL     1      32.546  10.516  -3.257  1.00  0.00    -0.244 NA
ATOM     25  C   UNL     1      34.562  10.175  -2.020  1.00  0.00     0.089 A
ATOM     26  C   UNL     1      35.649  10.729  -1.357  1.00  0.00     0.030 A
ATOM     27  C   UNL     1      32.419   9.173  -3.327  1.00  0.00     0.092 A
ATOM     28  N   UNL     1      34.437   8.831  -2.082  1.00  0.00    -0.252 NA
ATOM     29  C   UNL     1      33.354   8.347  -2.741  1.00  0.00     0.140 A
BRANCH  27  30
ATOM     30  C   UNL     1      31.250   8.705  -4.040  1.00  0.00     0.040 A
ATOM     31  C   UNL     1      30.346   9.558  -4.639  1.00  0.00     0.119 A
ATOM     32  C   UNL     1      30.712   7.427  -4.281  1.00  0.00     0.145 A
ATOM     33  N   UNL     1      29.333   8.788  -5.142  1.00  0.00    -0.265 N
ATOM     34  N   UNL     1      29.552   7.470  -4.946  1.00  0.00    -0.180 NA
BRANCH  33  35
ATOM     35  C   UNL     1      28.078   9.307  -5.761  1.00  0.00     0.074 C
ATOM     36  C   UNL     1      28.187   9.093  -7.300  1.00  0.00     0.047 C
ATOM     37  C   UNL     1      26.823   8.567  -5.214  1.00  0.00     0.047 C
ATOM     38  C   UNL     1      26.879   8.620  -7.926  1.00  0.00     0.083 C
ATOM     39  C   UNL     1      26.635   7.225  -5.916  1.00  0.00     0.083 C
ATOM     40  N   UNL     1      26.400   7.365  -7.355  1.00  0.00    -0.317 NA
ATOM     41  H   UNL     1      26.813   6.569  -7.841  1.00  0.00     0.122 HD
ATOM     42  G   UNL     1      28.010  10.814  -5.357  1.00  0.00     0.000 C
ENDBRANCH  33  35
ENDBRANCH  27  30
ENDBRANCH   4  20
TORSDOF 0
ENDMDL
MODEL 9
REMARK VINA RESULT:      -9.8      1.113      1.298
REMARK SMILES Fc1cc2cc(F)c1CN1CCO[C@@H](CSCC3(CCNCC3)n3cc(cn3)-c3cnc4cccc-2c4n3)C1
REMARK SMILES IDX 1 1 2 2 3 3 4 4 5 5 6 6 7 7 8 8 9 9 10 10 11 11 39 12 12 13
REMARK SMILES IDX 14 14 13 15 15 16 16 17 17 18 36 20 35 21 37 22 34 23 38 24
REMARK SMILES IDX 32 25 33 26 29 27 31 28 30 29 26 30 25 31 27 32 24 33 28 34
REMARK SMILES IDX 18 35 19 36 23 37 20 38 22 39 21 40
REMARK H PARENT 21 41
REMARK Flexibility Score:   78.900
ROOT
ATOM      1  F   UNL     1      32.523  15.708  -6.112  1.00  0.00    -0.207 F
ATOM      2  C   UNL     1      32.406  15.320  -4.834  1.00  0.00     0.131 A
ATOM      3  C   UNL     1      33.189  14.256  -4.389  1.00  0.00     0.048 A
ATOM      4  C   UNL     1      33.071  13.772  -3.075  1.00  0.00    -0.010 A
ATOM      5  C   UNL     1      32.187  14.440  -2.215  1.00  0.00     0.048 A
ATOM      6  C   UNL     1      31.422  15.516  -2.673  1.00  0.00     0.131 A
ATOM      7  F   UNL     1      30.593  16.120  -1.810  1.00  0.00    -0.207 F
ATOM      8  C   UNL     1      31.500  15.962  -3.993  1.00  0.00     0.038 A
ENDROOT
BRANCH   8   9
ATOM      9  C   UNL     1      30.642  17.088  -4.499  1.00  0.00     0.126 C
BRANCH   9  10
ATOM     10  N   UNL     1      29.279  16.682  -4.881  1.00  0.00    -0.294 NA
ATOM     11  C   UNL     1      28.308  17.775  -4.651  1.00  0.00     0.113 C
ATOM     12  C   UNL     1      29.194  16.195  -6.282  1.00  0.00     0.117 C
ATOM     13  C   UNL     1      27.888  18.506  -5.936  1.00  0.00     0.176 C
ATOM     14  C   UNL     1      27.744  16.276  -6.813  1.00  0.00     0.142 C
ATOM     15  O   UNL     1      27.281  17.640  -6.902  1.00  0.00    -0.375 OA
BRANCH  14  16
ATOM     16  C   UNL     1      27.507  15.577  -8.163  1.00  0.00     0.103 C
BRANCH  16  17
ATOM     17  S   UNL     1      25.932  14.649  -8.327  1.00  0.00    -0.157 SA
BRANCH  17  18
ATOM     18  C   UNL     1      26.591  13.050  -8.930  1.00  0.00     0.100 C
ATOM     19  G   UNL     1      27.516  13.087 -10.188  1.00  0.00     0.000 C
ENDBRANCH  17  18
ENDBRANCH  16  17
ENDBRANCH  14  16
ENDBRANCH   9  10
ENDBRANCH   8   9
BRANCH   4  20
ATOM     20  C   UNL     1      33.805  12.560  -2.638  1.00  0.00     0.010 A
ATOM     21  C   UNL     1      35.056  12.677  -2.010  1.00  0.00     0.011 A
ATOM     22  C   UNL     1      33.248  11.278  -2.829  1.00  0.00     0.097 A
ATOM     23  C   UNL     1      35.741  11.545  -1.582  1.00  0.00     0.003 A
ATOM     24  N   UNL     1      32.046  11.143  -3.425  1.00  0.00    -0.244 NA
ATOM     25  C   UNL     1      33.944  10.127  -2.387  1.00  0.00     0.089 A
ATOM     26  C   UNL     1      35.179  10.284  -1.773  1.00  0.00     0.030 A
ATOM     27  C   UNL     1      31.534   9.904  -3.592  1.00  0.00     0.092 A
ATOM     28  N   UNL     1      33.435   8.886  -2.546  1.00  0.00    -0.252 NA
ATOM     29  C   UNL     1      32.223   8.794  -3.151  1.00  0.00     0.140 A
BRANCH  27  30
ATOM     30  C   UNL     1      30.243   9.858  -4.242  1.00  0.00     0.040 A
ATOM     31  C   UNL     1      29.894   8.877  -5.148  1.00  0.00     0.119 A
ATOM     32  C   UNL     1      29.110  10.694  -4.203  1.00  0.00     0.145 A
ATOM     33  N   UNL     1      28.648   9.187  -5.622  1.00  0.00    -0.265 N
ATOM     34  N   UNL     1      28.143  10.294  -5.035  1.00  0.00    -0.180 NA
BRANCH  33  35
ATOM     35  C   UNL     1      27.936   8.466  -6.718  1.00  0.00     0.074 C
ATOM     36  C   UNL     1      29.005   7.689  -7.543  1.00  0.00     0.047 C
ATOM     37  C   UNL     1      26.881   7.470  -6.154  1.00  0.00     0.047 C
ATOM     38  C   UNL     1      28.540   6.295  -7.950  1.00  0.00     0.083 C
ATOM     39  C   UNL     1      27.545   6.171  -5.706  1.00  0.00     0.083 C
ATOM     40  N   UNL     1      28.195   5.457  -6.806  1.00  0.00    -0.317 NA
ATOM     41  H   UNL     1      29.022   4.976  -6.450  1.00  0.00     0.122 HD
ATOM     42  G   UNL     1      27.214   9.577  -7.544  1.00  0.00     0.000 C
ENDBRANCH  33  35
ENDBRANCH  27  30
ENDBRANCH   4  20
TORSDOF 0
ENDMDL
