MODEL 1
REMARK VINA RESULT:      -7.5      0.000      0.000
REMARK SMILES O=C1Nc2c[nH]nc2-c2nc3ccc(cc3[nH]2)CN2CCOC[C@H]2CCSCCCC2(CC2)N1
REMARK SMILES IDX 9 1 10 2 11 3 12 4 13 5 14 6 15 7 16 8 17 9 8 11 4 12 5 13
REMARK SMILES IDX 6 14 7 15 3 17 1 18 2 19 34 20 31 23 32 24 33 25 30 26 29 27
REMARK SMILES IDX 18 29 19 30 20 31 24 32 21 33 23 34 22 35 25 36 26 37 27 38
REMARK SMILES IDX 28 39
REMARK H PARENT 17 10 6 16 3 21 34 22
REMARK Flexibility Score:   58.900
ROOT
ATOM      1  C   UNL     1      32.863  12.034  -3.823  1.00  0.00     0.161 A
ATOM      2  N   UNL     1      33.360  13.068  -3.170  1.00  0.00    -0.227 NA
ATOM      3  C   UNL     1      32.881  14.169  -3.847  1.00  0.00     0.089 A
ATOM      4  C   UNL     1      32.900  15.528  -3.505  1.00  0.00     0.031 A
ATOM      5  C   UNL     1      32.190  16.432  -4.314  1.00  0.00     0.007 A
ATOM      6  C   UNL     1      31.508  16.006  -5.468  1.00  0.00    -0.032 A
ATOM      7  C   UNL     1      31.598  14.666  -5.883  1.00  0.00     0.033 A
ATOM      8  C   UNL     1      32.246  13.787  -5.021  1.00  0.00     0.066 A
ATOM      9  N   UNL     1      32.395  12.434  -5.047  1.00  0.00    -0.337 N
ATOM     10  H   UNL     1      32.104  11.817  -5.789  1.00  0.00     0.168 HD
ENDROOT
BRANCH   1  11
ATOM     11  C   UNL     1      32.722  10.557  -3.307  1.00  0.00     0.151 A
ATOM     12  C   UNL     1      31.648   9.677  -3.650  1.00  0.00     0.092 A
ATOM     13  C   UNL     1      31.964   8.497  -3.026  1.00  0.00     0.132 A
ATOM     14  N   UNL     1      33.095   8.740  -2.303  1.00  0.00    -0.283 N
ATOM     15  N   UNL     1      33.556   9.996  -2.424  1.00  0.00    -0.170 NA
ATOM     16  H   UNL     1      33.593   8.104  -1.689  1.00  0.00     0.189 HD
BRANCH  12  17
ATOM     17  N   UNL     1      30.500   9.994  -4.363  1.00  0.00    -0.304 N
ATOM     18  O   UNL     1      30.082   8.012  -5.505  1.00  0.00    -0.248 OA
ATOM     19  C   UNL     1      29.810   9.172  -5.231  1.00  0.00     0.319 C
ATOM     20  N   UNL     1      28.707   9.851  -5.740  1.00  0.00    -0.332 N
ATOM     21  H   UNL     1      29.996  10.809  -4.062  1.00  0.00     0.172 HD
ATOM     22  H   UNL     1      28.657  10.851  -5.632  1.00  0.00     0.165 HD
BRANCH  20  23
ATOM     23  C   UNL     1      27.648   9.220  -6.481  1.00  0.00     0.042 C
ATOM     24  C   UNL     1      27.900   8.827  -7.921  1.00  0.00     0.031 C
ATOM     25  C   UNL     1      27.019   9.999  -7.621  1.00  0.00     0.031 C
BRANCH  23  26
ATOM     26  C   UNL     1      26.743   8.313  -5.662  1.00  0.00     0.029 C
BRANCH  26  27
ATOM     27  C   UNL     1      26.641   6.871  -6.188  1.00  0.00     0.013 C
ATOM     28  G   UNL     1      27.354   5.854  -5.296  1.00  0.00     0.000 C
ENDBRANCH  26  27
ENDBRANCH  23  26
ENDBRANCH  20  23
ENDBRANCH  12  17
ENDBRANCH   1  11
BRANCH   6  29
ATOM     29  C   UNL     1      30.653  16.980  -6.264  1.00  0.00     0.120 C
BRANCH  29  30
ATOM     30  N   UNL     1      29.218  16.591  -6.310  1.00  0.00    -0.292 NA
ATOM     31  C   UNL     1      28.468  17.546  -7.158  1.00  0.00     0.113 C
ATOM     32  C   UNL     1      28.617  16.524  -4.949  1.00  0.00     0.083 C
ATOM     33  C   UNL     1      27.829  18.738  -6.422  1.00  0.00     0.175 C
ATOM     34  C   UNL     1      28.414  17.921  -4.287  1.00  0.00     0.179 C
ATOM     35  O   UNL     1      28.512  19.021  -5.203  1.00  0.00    -0.378 OA
BRANCH  32  36
ATOM     36  C   UNL     1      27.300  15.700  -5.012  1.00  0.00     0.032 C
BRANCH  36  37
ATOM     37  C   UNL     1      27.498  14.335  -5.683  1.00  0.00     0.071 C
BRANCH  37  38
ATOM     38  S   UNL     1      25.934  13.700  -6.377  1.00  0.00    -0.162 SA
BRANCH  38  39
ATOM     39  C   UNL     1      26.029  14.292  -8.103  1.00  0.00     0.069 C
ATOM     40  G   UNL     1      27.445  14.190  -8.670  1.00  0.00     0.000 C
ENDBRANCH  38  39
ENDBRANCH  37  38
ENDBRANCH  36  37
ENDBRANCH  32  36
ENDBRANCH  29  30
ENDBRANCH   6  29
TORSDOF 0
ENDMDL
MODEL 2
REMARK VINA RESULT:      -7.5      2.411      3.997
REMARK SMILES O=C1Nc2c[nH]nc2-c2nc3ccc(cc3[nH]2)CN2CCOC[C@H]2CCSCCCC2(CC2)N1
REMARK SMILES IDX 9 1 10 2 11 3 12 4 13 5 14 6 15 7 16 8 17 9 8 11 4 12 5 13
REMARK SMILES IDX 6 14 7 15 3 17 1 18 2 19 34 20 31 23 32 24 33 25 30 26 29 27
REMARK SMILES IDX 18 29 19 30 20 31 24 32 21 33 23 34 22 35 25 36 26 37 27 38
REMARK SMILES IDX 28 39
REMARK H PARENT 17 10 6 16 3 21 34 22
REMARK Flexibility Score:   58.900
ROOT
ATOM      1  C   UNL     1      32.303  11.029  -4.129  1.00  0.00     0.161 A
ATOM      2  N   UNL     1      33.320  11.443  -3.398  1.00  0.00    -0.227 NA
ATOM      3  C   UNL     1      33.278  12.818  -3.491  1.00  0.00     0.089 A
ATOM      4  C   UNL     1      33.969  13.801  -2.770  1.00  0.00     0.031 A
ATOM      5  C   UNL     1      33.612  15.147  -2.962  1.00  0.00     0.007 A
ATOM      6  C   UNL     1      32.617  15.519  -3.884  1.00  0.00    -0.032 A
ATOM      7  C   UNL     1      32.017  14.545  -4.701  1.00  0.00     0.033 A
ATOM      8  C   UNL     1      32.340  13.219  -4.433  1.00  0.00     0.066 A
ATOM      9  N   UNL     1      31.855  12.047  -4.929  1.00  0.00    -0.337 N
ATOM     10  H   UNL     1      31.190  11.948  -5.679  1.00  0.00     0.168 HD
ENDROOT
BRANCH   1  11
ATOM     11  C   UNL     1      31.605   9.622  -4.084  1.00  0.00     0.151 A
ATOM     12  C   UNL     1      30.437   9.272  -4.832  1.00  0.00     0.092 A
ATOM     13  C   UNL     1      30.222   7.952  -4.528  1.00  0.00     0.132 A
ATOM     14  N   UNL     1      31.159   7.620  -3.593  1.00  0.00    -0.283 N
ATOM     15  N   UNL     1      31.988   8.628  -3.276  1.00  0.00    -0.170 NA
ATOM     16  H   UNL     1      31.277   6.734  -3.113  1.00  0.00     0.189 HD
BRANCH  12  17
ATOM     17  N   UNL     1      29.649  10.118  -5.601  1.00  0.00    -0.304 N
ATOM     18  O   UNL     1      28.838  11.602  -4.004  1.00  0.00    -0.248 OA
ATOM     19  C   UNL     1      28.910  11.195  -5.156  1.00  0.00     0.319 C
ATOM     20  N   UNL     1      28.265  11.796  -6.232  1.00  0.00    -0.332 N
ATOM     21  H   UNL     1      29.797  10.089  -6.594  1.00  0.00     0.172 HD
ATOM     22  H   UNL     1      28.205  11.298  -7.106  1.00  0.00     0.165 HD
BRANCH  20  23
ATOM     23  C   UNL     1      27.609  13.074  -6.162  1.00  0.00     0.042 C
ATOM     24  C   UNL     1      26.281  13.174  -5.441  1.00  0.00     0.031 C
ATOM     25  C   UNL     1      26.315  13.250  -6.935  1.00  0.00     0.031 C
BRANCH  23  26
ATOM     26  C   UNL     1      28.542  14.271  -6.067  1.00  0.00     0.029 C
BRANCH  26  27
ATOM     27  C   UNL     1      28.468  15.032  -4.733  1.00  0.00     0.013 C
ATOM     28  G   UNL     1      27.699  16.350  -4.835  1.00  0.00     0.000 C
ENDBRANCH  26  27
ENDBRANCH  23  26
ENDBRANCH  20  23
ENDBRANCH  12  17
ENDBRANCH   1  11
BRANCH   6  29
ATOM     29  C   UNL     1      32.167  16.967  -3.993  1.00  0.00     0.120 C
BRANCH  29  30
ATOM     30  N   UNL     1      31.524  17.281  -5.296  1.00  0.00    -0.292 NA
ATOM     31  C   UNL     1      32.546  17.302  -6.367  1.00  0.00     0.113 C
ATOM     32  C   UNL     1      30.790  18.576  -5.256  1.00  0.00     0.083 C
ATOM     33  C   UNL     1      33.174  18.675  -6.668  1.00  0.00     0.175 C
ATOM     34  C   UNL     1      31.726  19.822  -5.202  1.00  0.00     0.179 C
ATOM     35  O   UNL     1      33.092  19.542  -5.540  1.00  0.00    -0.378 OA
BRANCH  32  36
ATOM     36  C   UNL     1      29.791  18.636  -6.446  1.00  0.00     0.032 C
BRANCH  36  37
ATOM     37  C   UNL     1      28.703  19.696  -6.241  1.00  0.00     0.071 C
BRANCH  37  38
ATOM     38  S   UNL     1      27.620  19.833  -7.704  1.00  0.00    -0.162 SA
BRANCH  38  39
ATOM     39  C   UNL     1      26.970  18.131  -7.842  1.00  0.00     0.069 C
ATOM     40  G   UNL     1      26.587  17.776  -9.280  1.00  0.00     0.000 C
ENDBRANCH  38  39
ENDBRANCH  37  38
ENDBRANCH  36  37
ENDBRANCH  32  36
ENDBRANCH  29  30
ENDBRANCH   6  29
TORSDOF 0
ENDMDL
MODEL 3
REMARK VINA RESULT:      -7.4      2.412      3.641
REMARK SMILES O=C1Nc2c[nH]nc2-c2nc3ccc(cc3[nH]2)CN2CCOC[C@H]2CCSCCCC2(CC2)N1
REMARK SMILES IDX 9 1 10 2 11 3 12 4 13 5 14 6 15 7 16 8 17 9 8 11 4 12 5 13
REMARK SMILES IDX 6 14 7 15 3 17 1 18 2 19 34 20 31 23 32 24 33 25 30 26 29 27
REMARK SMILES IDX 18 29 19 30 20 31 24 32 21 33 23 34 22 35 25 36 26 37 27 38
REMARK SMILES IDX 28 39
REMARK H PARENT 17 10 6 16 3 21 34 22
REMARK Flexibility Score:   58.900
ROOT
ATOM      1  C   UNL     1      33.070  11.853  -3.653  1.00  0.00     0.161 A
ATOM      2  N   UNL     1      33.624  12.875  -3.029  1.00  0.00    -0.227 NA
ATOM      3  C   UNL     1      33.178  13.985  -3.715  1.00  0.00     0.089 A
ATOM      4  C   UNL     1      33.262  15.347  -3.397  1.00  0.00     0.031 A
ATOM      5  C   UNL     1      32.573  16.267  -4.206  1.00  0.00     0.007 A
ATOM      6  C   UNL     1      31.848  15.851  -5.337  1.00  0.00    -0.032 A
ATOM      7  C   UNL     1      31.872  14.503  -5.731  1.00  0.00     0.033 A
ATOM      8  C   UNL     1      32.501  13.611  -4.868  1.00  0.00     0.066 A
ATOM      9  N   UNL     1      32.591  12.252  -4.874  1.00  0.00    -0.337 N
ATOM     10  H   UNL     1      32.259  11.636  -5.598  1.00  0.00     0.168 HD
ENDROOT
BRANCH   1  11
ATOM     11  C   UNL     1      32.878  10.392  -3.109  1.00  0.00     0.151 A
ATOM     12  C   UNL     1      31.902   9.466  -3.596  1.00  0.00     0.092 A
ATOM     13  C   UNL     1      32.133   8.320  -2.879  1.00  0.00     0.132 A
ATOM     14  N   UNL     1      33.115   8.625  -1.982  1.00  0.00    -0.283 N
ATOM     15  N   UNL     1      33.559   9.890  -2.073  1.00  0.00    -0.170 NA
ATOM     16  H   UNL     1      33.514   8.028  -1.264  1.00  0.00     0.189 HD
BRANCH  12  17
ATOM     17  N   UNL     1      30.888   9.720  -4.510  1.00  0.00    -0.304 N
ATOM     18  O   UNL     1      30.187   7.573  -5.059  1.00  0.00    -0.248 OA
ATOM     19  C   UNL     1      30.119   8.789  -5.176  1.00  0.00     0.319 C
ATOM     20  N   UNL     1      29.204   9.438  -5.997  1.00  0.00    -0.332 N
ATOM     21  H   UNL     1      30.527  10.658  -4.529  1.00  0.00     0.172 HD
ATOM     22  H   UNL     1      29.335  10.417  -6.196  1.00  0.00     0.165 HD
BRANCH  20  23
ATOM     23  C   UNL     1      28.101   8.782  -6.646  1.00  0.00     0.042 C
ATOM     24  C   UNL     1      26.849   9.579  -6.942  1.00  0.00     0.031 C
ATOM     25  C   UNL     1      26.832   8.564  -5.843  1.00  0.00     0.031 C
BRANCH  23  26
ATOM     26  C   UNL     1      28.493   7.709  -7.650  1.00  0.00     0.029 C
BRANCH  26  27
ATOM     27  C   UNL     1      28.867   8.244  -9.042  1.00  0.00     0.013 C
ATOM     28  G   UNL     1      27.740   8.095 -10.065  1.00  0.00     0.000 C
ENDBRANCH  26  27
ENDBRANCH  23  26
ENDBRANCH  20  23
ENDBRANCH  12  17
ENDBRANCH   1  11
BRANCH   6  29
ATOM     29  C   UNL     1      31.017  16.848  -6.131  1.00  0.00     0.120 C
BRANCH  29  30
ATOM     30  N   UNL     1      30.693  18.079  -5.362  1.00  0.00    -0.292 NA
ATOM     31  C   UNL     1      29.554  17.816  -4.453  1.00  0.00     0.113 C
ATOM     32  C   UNL     1      30.386  19.228  -6.258  1.00  0.00     0.083 C
ATOM     33  C   UNL     1      28.158  18.139  -5.015  1.00  0.00     0.175 C
ATOM     34  C   UNL     1      29.017  19.098  -6.992  1.00  0.00     0.179 C
ATOM     35  O   UNL     1      28.150  18.097  -6.440  1.00  0.00    -0.378 OA
BRANCH  32  36
ATOM     36  C   UNL     1      30.501  20.551  -5.450  1.00  0.00     0.032 C
BRANCH  36  37
ATOM     37  C   UNL     1      31.679  21.417  -5.914  1.00  0.00     0.071 C
BRANCH  37  38
ATOM     38  S   UNL     1      33.260  20.817  -5.225  1.00  0.00    -0.162 SA
BRANCH  38  39
ATOM     39  C   UNL     1      34.066  20.117  -6.709  1.00  0.00     0.069 C
ATOM     40  G   UNL     1      34.103  18.589  -6.678  1.00  0.00     0.000 C
ENDBRANCH  38  39
ENDBRANCH  37  38
ENDBRANCH  36  37
ENDBRANCH  32  36
ENDBRANCH  29  30
ENDBRANCH   6  29
TORSDOF 0
ENDMDL
MODEL 4
REMARK VINA RESULT:      -7.4      2.317      3.692
REMARK SMILES O=C1Nc2c[nH]nc2-c2nc3ccc(cc3[nH]2)CN2CCOC[C@H]2CCSCCCC2(CC2)N1
REMARK SMILES IDX 9 1 10 2 11 3 12 4 13 5 14 6 15 7 16 8 17 9 8 11 4 12 5 13
REMARK SMILES IDX 6 14 7 15 3 17 1 18 2 19 34 20 31 23 32 24 33 25 30 26 29 27
REMARK SMILES IDX 18 29 19 30 20 31 24 32 21 33 23 34 22 35 25 36 26 37 27 38
REMARK SMILES IDX 28 39
REMARK H PARENT 17 10 6 16 3 21 34 22
REMARK Flexibility Score:   58.900
ROOT
ATOM      1  C   UNL     1      32.232  10.722  -4.096  1.00  0.00     0.161 A
ATOM      2  N   UNL     1      33.128  11.080  -3.196  1.00  0.00    -0.227 NA
ATOM      3  C   UNL     1      33.200  12.452  -3.302  1.00  0.00     0.089 A
ATOM      4  C   UNL     1      33.817  13.399  -2.473  1.00  0.00     0.031 A
ATOM      5  C   UNL     1      33.596  14.763  -2.733  1.00  0.00     0.007 A
ATOM      6  C   UNL     1      32.812  15.184  -3.823  1.00  0.00    -0.032 A
ATOM      7  C   UNL     1      32.302  14.239  -4.729  1.00  0.00     0.033 A
ATOM      8  C   UNL     1      32.478  12.899  -4.400  1.00  0.00     0.066 A
ATOM      9  N   UNL     1      32.009  11.755  -4.969  1.00  0.00    -0.337 N
ATOM     10  H   UNL     1      31.484  11.688  -5.827  1.00  0.00     0.168 HD
ENDROOT
BRANCH   1  11
ATOM     11  C   UNL     1      31.441   9.367  -4.171  1.00  0.00     0.151 A
ATOM     12  C   UNL     1      30.256   9.162  -4.945  1.00  0.00     0.092 A
ATOM     13  C   UNL     1      29.951   7.838  -4.754  1.00  0.00     0.132 A
ATOM     14  N   UNL     1      30.859   7.366  -3.851  1.00  0.00    -0.283 N
ATOM     15  N   UNL     1      31.752   8.285  -3.449  1.00  0.00    -0.170 NA
ATOM     16  H   UNL     1      30.914   6.436  -3.448  1.00  0.00     0.189 HD
BRANCH  12  17
ATOM     17  N   UNL     1      29.531  10.121  -5.639  1.00  0.00    -0.304 N
ATOM     18  O   UNL     1      28.855  11.543  -3.928  1.00  0.00    -0.248 OA
ATOM     19  C   UNL     1      28.884  11.217  -5.107  1.00  0.00     0.319 C
ATOM     20  N   UNL     1      28.280  11.945  -6.126  1.00  0.00    -0.332 N
ATOM     21  H   UNL     1      29.668  10.153  -6.634  1.00  0.00     0.172 HD
ATOM     22  H   UNL     1      28.173  11.518  -7.033  1.00  0.00     0.165 HD
BRANCH  20  23
ATOM     23  C   UNL     1      27.727  13.262  -5.955  1.00  0.00     0.042 C
ATOM     24  C   UNL     1      28.311  14.408  -6.753  1.00  0.00     0.031 C
ATOM     25  C   UNL     1      28.593  14.313  -5.286  1.00  0.00     0.031 C
BRANCH  23  26
ATOM     26  C   UNL     1      26.232  13.299  -5.678  1.00  0.00     0.029 C
BRANCH  26  27
ATOM     27  C   UNL     1      25.389  13.908  -6.811  1.00  0.00     0.013 C
ATOM     28  G   UNL     1      25.243  12.978  -8.017  1.00  0.00     0.000 C
ENDBRANCH  26  27
ENDBRANCH  23  26
ENDBRANCH  20  23
ENDBRANCH  12  17
ENDBRANCH   1  11
BRANCH   6  29
ATOM     29  C   UNL     1      32.492  16.658  -4.018  1.00  0.00     0.120 C
BRANCH  29  30
ATOM     30  N   UNL     1      31.683  16.921  -5.238  1.00  0.00    -0.292 NA
ATOM     31  C   UNL     1      32.560  17.420  -6.323  1.00  0.00     0.113 C
ATOM     32  C   UNL     1      30.582  17.889  -4.977  1.00  0.00     0.083 C
ATOM     33  C   UNL     1      32.696  18.949  -6.426  1.00  0.00     0.175 C
ATOM     34  C   UNL     1      31.076  19.351  -4.758  1.00  0.00     0.179 C
ATOM     35  O   UNL     1      32.430  19.579  -5.175  1.00  0.00    -0.378 OA
BRANCH  32  36
ATOM     36  C   UNL     1      29.527  17.784  -6.114  1.00  0.00     0.032 C
BRANCH  36  37
ATOM     37  C   UNL     1      28.134  18.236  -5.660  1.00  0.00     0.071 C
BRANCH  37  38
ATOM     38  S   UNL     1      27.477  19.555  -6.737  1.00  0.00    -0.162 SA
BRANCH  38  39
ATOM     39  C   UNL     1      25.981  18.760  -7.423  1.00  0.00     0.069 C
ATOM     40  G   UNL     1      26.278  17.377  -8.004  1.00  0.00     0.000 C
ENDBRANCH  38  39
ENDBRANCH  37  38
ENDBRANCH  36  37
ENDBRANCH  32  36
ENDBRANCH  29  30
ENDBRANCH   6  29
TORSDOF 0
ENDMDL
MODEL 5
REMARK VINA RESULT:      -7.4      2.219      7.616
REMARK SMILES O=C1Nc2c[nH]nc2-c2nc3ccc(cc3[nH]2)CN2CCOC[C@H]2CCSCCCC2(CC2)N1
REMARK SMILES IDX 9 1 10 2 11 3 12 4 13 5 14 6 15 7 16 8 17 9 8 11 4 12 5 13
REMARK SMILES IDX 6 14 7 15 3 17 1 18 2 19 34 20 31 23 32 24 33 25 30 26 29 27
REMARK SMILES IDX 18 29 19 30 20 31 24 32 21 33 23 34 22 35 25 36 26 37 27 38
REMARK SMILES IDX 28 39
REMARK H PARENT 17 10 6 16 3 21 34 22
REMARK Flexibility Score:   58.900
ROOT
ATOM      1  C   UNL     1      32.483  10.239  -3.121  1.00  0.00     0.161 A
ATOM      2  N   UNL     1      32.310   8.957  -2.859  1.00  0.00    -0.227 NA
ATOM      3  C   UNL     1      31.356   8.542  -3.762  1.00  0.00     0.089 A
ATOM      4  C   UNL     1      30.921   7.254  -4.102  1.00  0.00     0.031 A
ATOM      5  C   UNL     1      30.037   7.108  -5.185  1.00  0.00     0.007 A
ATOM      6  C   UNL     1      29.557   8.224  -5.895  1.00  0.00    -0.032 A
ATOM      7  C   UNL     1      29.890   9.522  -5.473  1.00  0.00     0.033 A
ATOM      8  C   UNL     1      30.822   9.626  -4.447  1.00  0.00     0.066 A
ATOM      9  N   UNL     1      31.452  10.701  -3.897  1.00  0.00    -0.337 N
ATOM     10  H   UNL     1      31.273  11.669  -4.110  1.00  0.00     0.168 HD
ENDROOT
BRANCH   1  11
ATOM     11  C   UNL     1      33.700  11.142  -2.709  1.00  0.00     0.151 A
ATOM     12  C   UNL     1      33.842  12.522  -3.062  1.00  0.00     0.092 A
ATOM     13  C   UNL     1      35.008  12.910  -2.451  1.00  0.00     0.132 A
ATOM     14  N   UNL     1      35.527  11.786  -1.877  1.00  0.00    -0.283 N
ATOM     15  N   UNL     1      34.773  10.689  -2.052  1.00  0.00    -0.170 NA
ATOM     16  H   UNL     1      36.402  11.690  -1.371  1.00  0.00     0.189 HD
BRANCH  12  17
ATOM     17  N   UNL     1      33.032  13.256  -3.917  1.00  0.00    -0.304 N
ATOM     18  O   UNL     1      33.487  15.438  -3.253  1.00  0.00    -0.248 OA
ATOM     19  C   UNL     1      32.897  14.628  -3.956  1.00  0.00     0.319 C
ATOM     20  N   UNL     1      31.999  14.982  -4.958  1.00  0.00    -0.332 N
ATOM     21  H   UNL     1      32.679  12.773  -4.724  1.00  0.00     0.172 HD
ATOM     22  H   UNL     1      31.407  14.271  -5.356  1.00  0.00     0.165 HD
BRANCH  20  23
ATOM     23  C   UNL     1      31.808  16.328  -5.426  1.00  0.00     0.042 C
ATOM     24  C   UNL     1      31.285  17.369  -4.460  1.00  0.00     0.031 C
ATOM     25  C   UNL     1      30.386  16.846  -5.535  1.00  0.00     0.031 C
BRANCH  23  26
ATOM     26  C   UNL     1      32.810  16.793  -6.472  1.00  0.00     0.029 C
BRANCH  26  27
ATOM     27  C   UNL     1      33.891  17.748  -5.939  1.00  0.00     0.013 C
ATOM     28  G   UNL     1      33.886  19.109  -6.637  1.00  0.00     0.000 C
ENDBRANCH  26  27
ENDBRANCH  23  26
ENDBRANCH  20  23
ENDBRANCH  12  17
ENDBRANCH   1  11
BRANCH   6  29
ATOM     29  C   UNL     1      28.694   8.037  -7.134  1.00  0.00     0.120 C
BRANCH  29  30
ATOM     30  N   UNL     1      27.523   8.953  -7.171  1.00  0.00    -0.292 NA
ATOM     31  C   UNL     1      26.322   8.252  -6.662  1.00  0.00     0.113 C
ATOM     32  C   UNL     1      27.274   9.480  -8.542  1.00  0.00     0.083 C
ATOM     33  C   UNL     1      25.452   7.555  -7.724  1.00  0.00     0.175 C
ATOM     34  C   UNL     1      26.710   8.412  -9.527  1.00  0.00     0.179 C
ATOM     35  O   UNL     1      26.213   7.228  -8.885  1.00  0.00    -0.378 OA
BRANCH  32  36
ATOM     36  C   UNL     1      26.365  10.738  -8.448  1.00  0.00     0.032 C
BRANCH  36  37
ATOM     37  C   UNL     1      26.548  11.678  -9.647  1.00  0.00     0.071 C
BRANCH  37  38
ATOM     38  S   UNL     1      27.090  13.338  -9.116  1.00  0.00    -0.162 SA
BRANCH  38  39
ATOM     39  C   UNL     1      26.804  13.261  -7.313  1.00  0.00     0.069 C
ATOM     40  G   UNL     1      28.000  13.784  -6.517  1.00  0.00     0.000 C
ENDBRANCH  38  39
ENDBRANCH  37  38
ENDBRANCH  36  37
ENDBRANCH  32  36
ENDBRANCH  29  30
ENDBRANCH   6  29
TORSDOF 0
ENDMDL
MODEL 6
REMARK VINA RESULT:      -7.4      2.312      6.697
REMARK SMILES O=C1Nc2c[nH]nc2-c2nc3ccc(cc3[nH]2)CN2CCOC[C@H]2CCSCCCC2(CC2)N1
REMARK SMILES IDX 9 1 10 2 11 3 12 4 13 5 14 6 15 7 16 8 17 9 8 11 4 12 5 13
REMARK SMILES IDX 6 14 7 15 3 17 1 18 2 19 34 20 31 23 32 24 33 25 30 26 29 27
REMARK SMILES IDX 18 29 19 30 20 31 24 32 21 33 23 34 22 35 25 36 26 37 27 38
REMARK SMILES IDX 28 39
REMARK H PARENT 17 10 6 16 3 21 34 22
REMARK Flexibility Score:   58.900
ROOT
ATOM      1  C   UNL     1      32.372  10.394  -3.259  1.00  0.00     0.161 A
ATOM      2  N   UNL     1      32.202   9.127  -2.933  1.00  0.00    -0.227 NA
ATOM      3  C   UNL     1      31.263   8.659  -3.827  1.00  0.00     0.089 A
ATOM      4  C   UNL     1      30.840   7.352  -4.104  1.00  0.00     0.031 A
ATOM      5  C   UNL     1      29.973   7.145  -5.190  1.00  0.00     0.007 A
ATOM      6  C   UNL     1      29.497   8.218  -5.965  1.00  0.00    -0.032 A
ATOM      7  C   UNL     1      29.816   9.539  -5.607  1.00  0.00     0.033 A
ATOM      8  C   UNL     1      30.733   9.703  -4.574  1.00  0.00     0.066 A
ATOM      9  N   UNL     1      31.350  10.809  -4.073  1.00  0.00    -0.337 N
ATOM     10  H   UNL     1      31.169  11.763  -4.339  1.00  0.00     0.168 HD
ENDROOT
BRANCH   1  11
ATOM     11  C   UNL     1      33.578  11.326  -2.879  1.00  0.00     0.151 A
ATOM     12  C   UNL     1      33.494  12.748  -2.747  1.00  0.00     0.092 A
ATOM     13  C   UNL     1      34.753  13.127  -2.356  1.00  0.00     0.132 A
ATOM     14  N   UNL     1      35.511  11.993  -2.365  1.00  0.00    -0.283 N
ATOM     15  N   UNL     1      34.831  10.889  -2.718  1.00  0.00    -0.170 NA
ATOM     16  H   UNL     1      36.502  11.901  -2.165  1.00  0.00     0.189 HD
BRANCH  12  17
ATOM     17  N   UNL     1      32.408  13.556  -3.054  1.00  0.00    -0.304 N
ATOM     18  O   UNL     1      32.494  13.614  -5.377  1.00  0.00    -0.248 OA
ATOM     19  C   UNL     1      31.989  13.939  -4.312  1.00  0.00     0.319 C
ATOM     20  N   UNL     1      30.857  14.740  -4.204  1.00  0.00    -0.332 N
ATOM     21  H   UNL     1      31.734  13.698  -2.323  1.00  0.00     0.172 HD
ATOM     22  H   UNL     1      30.618  15.129  -3.305  1.00  0.00     0.165 HD
BRANCH  20  23
ATOM     23  C   UNL     1      30.029  15.115  -5.318  1.00  0.00     0.042 C
ATOM     24  C   UNL     1      30.490  16.234  -6.226  1.00  0.00     0.031 C
ATOM     25  C   UNL     1      29.357  16.475  -5.278  1.00  0.00     0.031 C
BRANCH  23  26
ATOM     26  C   UNL     1      29.264  13.969  -5.963  1.00  0.00     0.029 C
BRANCH  26  27
ATOM     27  C   UNL     1      28.580  13.019  -4.965  1.00  0.00     0.013 C
ATOM     28  G   UNL     1      27.360  12.307  -5.553  1.00  0.00     0.000 C
ENDBRANCH  26  27
ENDBRANCH  23  26
ENDBRANCH  20  23
ENDBRANCH  12  17
ENDBRANCH   1  11
BRANCH   6  29
ATOM     29  C   UNL     1      28.652   7.961  -7.204  1.00  0.00     0.120 C
BRANCH  29  30
ATOM     30  N   UNL     1      27.547   8.943  -7.368  1.00  0.00    -0.292 NA
ATOM     31  C   UNL     1      26.279   8.355  -6.880  1.00  0.00     0.113 C
ATOM     32  C   UNL     1      27.403   9.383  -8.784  1.00  0.00     0.083 C
ATOM     33  C   UNL     1      25.421   7.637  -7.938  1.00  0.00     0.175 C
ATOM     34  C   UNL     1      26.822   8.283  -9.723  1.00  0.00     0.179 C
ATOM     35  O   UNL     1      26.216   7.182  -9.030  1.00  0.00    -0.378 OA
BRANCH  32  36
ATOM     36  C   UNL     1      26.575  10.699  -8.828  1.00  0.00     0.032 C
BRANCH  36  37
ATOM     37  C   UNL     1      26.352  11.199 -10.260  1.00  0.00     0.071 C
BRANCH  37  38
ATOM     38  S   UNL     1      27.380  12.663 -10.623  1.00  0.00    -0.162 SA
BRANCH  38  39
ATOM     39  C   UNL     1      27.325  13.556  -9.030  1.00  0.00     0.069 C
ATOM     40  G   UNL     1      27.098  15.057  -9.219  1.00  0.00     0.000 C
ENDBRANCH  38  39
ENDBRANCH  37  38
ENDBRANCH  36  37
ENDBRANCH  32  36
ENDBRANCH  29  30
ENDBRANCH   6  29
TORSDOF 0
ENDMDL
MODEL 7
REMARK VINA RESULT:      -7.4      0.800      1.436
REMARK SMILES O=C1Nc2c[nH]nc2-c2nc3ccc(cc3[nH]2)CN2CCOC[C@H]2CCSCCCC2(CC2)N1
REMARK SMILES IDX 9 1 10 2 11 3 12 4 13 5 14 6 15 7 16 8 17 9 8 11 4 12 5 13
REMARK SMILES IDX 6 14 7 15 3 17 1 18 2 19 34 20 31 23 32 24 33 25 30 26 29 27
REMARK SMILES IDX 18 29 19 30 20 31 24 32 21 33 23 34 22 35 25 36 26 37 27 38
REMARK SMILES IDX 28 39
REMARK H PARENT 17 10 6 16 3 21 34 22
REMARK Flexibility Score:   58.900
ROOT
ATOM      1  C   UNL     1      33.023  12.003  -3.652  1.00  0.00     0.161 A
ATOM      2  N   UNL     1      33.544  13.053  -3.046  1.00  0.00    -0.227 NA
ATOM      3  C   UNL     1      33.037  14.137  -3.729  1.00  0.00     0.089 A
ATOM      4  C   UNL     1      33.068  15.504  -3.422  1.00  0.00     0.031 A
ATOM      5  C   UNL     1      32.324  16.388  -4.222  1.00  0.00     0.007 A
ATOM      6  C   UNL     1      31.596  15.933  -5.337  1.00  0.00    -0.032 A
ATOM      7  C   UNL     1      31.671  14.584  -5.722  1.00  0.00     0.033 A
ATOM      8  C   UNL     1      32.355  13.726  -4.867  1.00  0.00     0.066 A
ATOM      9  N   UNL     1      32.504  12.373  -4.866  1.00  0.00    -0.337 N
ATOM     10  H   UNL     1      32.185  11.738  -5.580  1.00  0.00     0.168 HD
ENDROOT
BRANCH   1  11
ATOM     11  C   UNL     1      32.906  10.539  -3.095  1.00  0.00     0.151 A
ATOM     12  C   UNL     1      31.973   9.563  -3.570  1.00  0.00     0.092 A
ATOM     13  C   UNL     1      32.264   8.435  -2.845  1.00  0.00     0.132 A
ATOM     14  N   UNL     1      33.235   8.795  -1.956  1.00  0.00    -0.283 N
ATOM     15  N   UNL     1      33.616  10.079  -2.060  1.00  0.00    -0.170 NA
ATOM     16  H   UNL     1      33.666   8.224  -1.236  1.00  0.00     0.189 HD
BRANCH  12  17
ATOM     17  N   UNL     1      30.944   9.760  -4.479  1.00  0.00    -0.304 N
ATOM     18  O   UNL     1      30.358   7.576  -5.023  1.00  0.00    -0.248 OA
ATOM     19  C   UNL     1      30.224   8.787  -5.141  1.00  0.00     0.319 C
ATOM     20  N   UNL     1      29.271   9.384  -5.959  1.00  0.00    -0.332 N
ATOM     21  H   UNL     1      30.531  10.676  -4.498  1.00  0.00     0.172 HD
ATOM     22  H   UNL     1      29.348  10.368  -6.160  1.00  0.00     0.165 HD
BRANCH  20  23
ATOM     23  C   UNL     1      28.202   8.667  -6.603  1.00  0.00     0.042 C
ATOM     24  C   UNL     1      26.867   9.356  -6.784  1.00  0.00     0.031 C
ATOM     25  C   UNL     1      27.003   8.274  -5.760  1.00  0.00     0.031 C
BRANCH  23  26
ATOM     26  C   UNL     1      28.642   7.707  -7.697  1.00  0.00     0.029 C
BRANCH  26  27
ATOM     27  C   UNL     1      28.658   8.314  -9.110  1.00  0.00     0.013 C
ATOM     28  G   UNL     1      27.547   7.772 -10.010  1.00  0.00     0.000 C
ENDBRANCH  26  27
ENDBRANCH  23  26
ENDBRANCH  20  23
ENDBRANCH  12  17
ENDBRANCH   1  11
BRANCH   6  29
ATOM     29  C   UNL     1      30.708  16.887  -6.120  1.00  0.00     0.120 C
BRANCH  29  30
ATOM     30  N   UNL     1      29.306  16.407  -6.245  1.00  0.00    -0.292 NA
ATOM     31  C   UNL     1      28.570  17.254  -7.212  1.00  0.00     0.113 C
ATOM     32  C   UNL     1      28.605  16.395  -4.931  1.00  0.00     0.083 C
ATOM     33  C   UNL     1      27.809  18.450  -6.614  1.00  0.00     0.175 C
ATOM     34  C   UNL     1      28.271  17.817  -4.388  1.00  0.00     0.179 C
ATOM     35  O   UNL     1      28.377  18.857  -5.371  1.00  0.00    -0.378 OA
BRANCH  32  36
ATOM     36  C   UNL     1      27.346  15.488  -5.031  1.00  0.00     0.032 C
BRANCH  36  37
ATOM     37  C   UNL     1      27.696  13.996  -4.971  1.00  0.00     0.071 C
BRANCH  37  38
ATOM     38  S   UNL     1      27.062  13.102  -6.430  1.00  0.00    -0.162 SA
BRANCH  38  39
ATOM     39  C   UNL     1      25.939  14.344  -7.164  1.00  0.00     0.069 C
ATOM     40  G   UNL     1      24.600  13.734  -7.582  1.00  0.00     0.000 C
ENDBRANCH  38  39
ENDBRANCH  37  38
ENDBRANCH  36  37
ENDBRANCH  32  36
ENDBRANCH  29  30
ENDBRANCH   6  29
TORSDOF 0
ENDMDL
MODEL 8
REMARK VINA RESULT:      -7.3      2.096      7.309
REMARK SMILES O=C1Nc2c[nH]nc2-c2nc3ccc(cc3[nH]2)CN2CCOC[C@H]2CCSCCCC2(CC2)N1
REMARK SMILES IDX 9 1 10 2 11 3 12 4 13 5 14 6 15 7 16 8 17 9 8 11 4 12 5 13
REMARK SMILES IDX 6 14 7 15 3 17 1 18 2 19 34 20 31 23 32 24 33 25 30 26 29 27
REMARK SMILES IDX 18 29 19 30 20 31 24 32 21 33 23 34 22 35 25 36 26 37 27 38
REMARK SMILES IDX 28 39
REMARK H PARENT 17 10 6 16 3 21 34 22
REMARK Flexibility Score:   58.900
ROOT
ATOM      1  C   UNL     1      32.512  10.673  -3.201  1.00  0.00     0.161 A
ATOM      2  N   UNL     1      32.319   9.398  -2.924  1.00  0.00    -0.227 NA
ATOM      3  C   UNL     1      31.361   8.987  -3.826  1.00  0.00     0.089 A
ATOM      4  C   UNL     1      30.907   7.701  -4.151  1.00  0.00     0.031 A
ATOM      5  C   UNL     1      30.025   7.557  -5.235  1.00  0.00     0.007 A
ATOM      6  C   UNL     1      29.564   8.671  -5.960  1.00  0.00    -0.032 A
ATOM      7  C   UNL     1      29.915   9.969  -5.553  1.00  0.00     0.033 A
ATOM      8  C   UNL     1      30.846  10.071  -4.524  1.00  0.00     0.066 A
ATOM      9  N   UNL     1      31.491  11.142  -3.986  1.00  0.00    -0.337 N
ATOM     10  H   UNL     1      31.328  12.110  -4.211  1.00  0.00     0.168 HD
ENDROOT
BRANCH   1  11
ATOM     11  C   UNL     1      33.742  11.563  -2.796  1.00  0.00     0.151 A
ATOM     12  C   UNL     1      33.902  12.938  -3.157  1.00  0.00     0.092 A
ATOM     13  C   UNL     1      35.074  13.314  -2.550  1.00  0.00     0.132 A
ATOM     14  N   UNL     1      35.578  12.187  -1.969  1.00  0.00    -0.283 N
ATOM     15  N   UNL     1      34.809  11.099  -2.136  1.00  0.00    -0.170 NA
ATOM     16  H   UNL     1      36.452  12.082  -1.463  1.00  0.00     0.189 HD
BRANCH  12  17
ATOM     17  N   UNL     1      33.102  13.678  -4.016  1.00  0.00    -0.304 N
ATOM     18  O   UNL     1      32.322  15.362  -2.616  1.00  0.00    -0.248 OA
ATOM     19  C   UNL     1      32.372  14.806  -3.705  1.00  0.00     0.319 C
ATOM     20  N   UNL     1      31.709  15.263  -4.838  1.00  0.00    -0.332 N
ATOM     21  H   UNL     1      33.232  13.517  -5.000  1.00  0.00     0.172 HD
ATOM     22  H   UNL     1      31.632  14.654  -5.638  1.00  0.00     0.165 HD
BRANCH  20  23
ATOM     23  C   UNL     1      31.055  16.541  -4.926  1.00  0.00     0.042 C
ATOM     24  C   UNL     1      29.834  16.796  -4.069  1.00  0.00     0.031 C
ATOM     25  C   UNL     1      29.669  16.588  -5.542  1.00  0.00     0.031 C
BRANCH  23  26
ATOM     26  C   UNL     1      31.982  17.720  -5.183  1.00  0.00     0.029 C
BRANCH  26  27
ATOM     27  C   UNL     1      33.385  17.331  -5.676  1.00  0.00     0.013 C
ATOM     28  G   UNL     1      33.568  17.522  -7.182  1.00  0.00     0.000 C
ENDBRANCH  26  27
ENDBRANCH  23  26
ENDBRANCH  20  23
ENDBRANCH  12  17
ENDBRANCH   1  11
BRANCH   6  29
ATOM     29  C   UNL     1      28.702   8.482  -7.199  1.00  0.00     0.120 C
BRANCH  29  30
ATOM     30  N   UNL     1      27.455   9.292  -7.170  1.00  0.00    -0.292 NA
ATOM     31  C   UNL     1      26.311   8.437  -6.779  1.00  0.00     0.113 C
ATOM     32  C   UNL     1      27.188   9.948  -8.480  1.00  0.00     0.083 C
ATOM     33  C   UNL     1      25.529   7.792  -7.938  1.00  0.00     0.175 C
ATOM     34  C   UNL     1      26.742   8.954  -9.595  1.00  0.00     0.179 C
ATOM     35  O   UNL     1      26.339   7.667  -9.104  1.00  0.00    -0.378 OA
BRANCH  32  36
ATOM     36  C   UNL     1      26.169  11.105  -8.275  1.00  0.00     0.032 C
BRANCH  36  37
ATOM     37  C   UNL     1      26.776  12.285  -7.505  1.00  0.00     0.071 C
BRANCH  37  38
ATOM     38  S   UNL     1      25.601  13.676  -7.384  1.00  0.00    -0.162 SA
BRANCH  38  39
ATOM     39  C   UNL     1      25.492  13.910  -5.574  1.00  0.00     0.069 C
ATOM     40  G   UNL     1      26.509  14.932  -5.063  1.00  0.00     0.000 C
ENDBRANCH  38  39
ENDBRANCH  37  38
ENDBRANCH  36  37
ENDBRANCH  32  36
ENDBRANCH  29  30
ENDBRANCH   6  29
TORSDOF 0
ENDMDL
MODEL 9
REMARK VINA RESULT:      -7.3      2.224      7.514
REMARK SMILES O=C1Nc2c[nH]nc2-c2nc3ccc(cc3[nH]2)CN2CCOC[C@H]2CCSCCCC2(CC2)N1
REMARK SMILES IDX 9 1 10 2 11 3 12 4 13 5 14 6 15 7 16 8 17 9 8 11 4 12 5 13
REMARK SMILES IDX 6 14 7 15 3 17 1 18 2 19 34 20 31 23 32 24 33 25 30 26 29 27
REMARK SMILES IDX 18 29 19 30 20 31 24 32 21 33 23 34 22 35 25 36 26 37 27 38
REMARK SMILES IDX 28 39
REMARK H PARENT 17 10 6 16 3 21 34 22
REMARK Flexibility Score:   58.900
ROOT
ATOM      1  C   UNL     1      32.518  10.257  -3.114  1.00  0.00     0.161 A
ATOM      2  N   UNL     1      32.286   8.992  -2.817  1.00  0.00    -0.227 NA
ATOM      3  C   UNL     1      31.352   8.583  -3.745  1.00  0.00     0.089 A
ATOM      4  C   UNL     1      30.881   7.301  -4.059  1.00  0.00     0.031 A
ATOM      5  C   UNL     1      30.035   7.152  -5.171  1.00  0.00     0.007 A
ATOM      6  C   UNL     1      29.626   8.260  -5.937  1.00  0.00    -0.032 A
ATOM      7  C   UNL     1      29.992   9.558  -5.544  1.00  0.00     0.033 A
ATOM      8  C   UNL     1      30.888   9.662  -4.485  1.00  0.00     0.066 A
ATOM      9  N   UNL     1      31.537  10.731  -3.946  1.00  0.00    -0.337 N
ATOM     10  H   UNL     1      31.405  11.697  -4.197  1.00  0.00     0.168 HD
ENDROOT
BRANCH   1  11
ATOM     11  C   UNL     1      33.753  11.128  -2.683  1.00  0.00     0.151 A
ATOM     12  C   UNL     1      33.933  12.505  -3.027  1.00  0.00     0.092 A
ATOM     13  C   UNL     1      35.101  12.860  -2.401  1.00  0.00     0.132 A
ATOM     14  N   UNL     1      35.585  11.722  -1.826  1.00  0.00    -0.283 N
ATOM     15  N   UNL     1      34.806  10.644  -2.016  1.00  0.00    -0.170 NA
ATOM     16  H   UNL     1      36.451  11.601  -1.310  1.00  0.00     0.189 HD
BRANCH  12  17
ATOM     17  N   UNL     1      33.152  13.263  -3.888  1.00  0.00    -0.304 N
ATOM     18  O   UNL     1      32.324  14.904  -2.465  1.00  0.00    -0.248 OA
ATOM     19  C   UNL     1      32.407  14.379  -3.567  1.00  0.00     0.319 C
ATOM     20  N   UNL     1      31.773  14.863  -4.706  1.00  0.00    -0.332 N
ATOM     21  H   UNL     1      33.311  13.130  -4.872  1.00  0.00     0.172 HD
ATOM     22  H   UNL     1      31.722  14.275  -5.523  1.00  0.00     0.165 HD
BRANCH  20  23
ATOM     23  C   UNL     1      31.114  16.139  -4.777  1.00  0.00     0.042 C
ATOM     24  C   UNL     1      29.754  16.295  -4.131  1.00  0.00     0.031 C
ATOM     25  C   UNL     1      29.858  16.243  -5.623  1.00  0.00     0.031 C
BRANCH  23  26
ATOM     26  C   UNL     1      32.042  17.343  -4.742  1.00  0.00     0.029 C
BRANCH  26  27
ATOM     27  C   UNL     1      33.360  17.155  -5.512  1.00  0.00     0.013 C
ATOM     28  G   UNL     1      33.212  17.373  -7.018  1.00  0.00     0.000 C
ENDBRANCH  26  27
ENDBRANCH  23  26
ENDBRANCH  20  23
ENDBRANCH  12  17
ENDBRANCH   1  11
BRANCH   6  29
ATOM     29  C   UNL     1      28.805   8.063  -7.202  1.00  0.00     0.120 C
BRANCH  29  30
ATOM     30  N   UNL     1      27.502   8.778  -7.167  1.00  0.00    -0.292 NA
ATOM     31  C   UNL     1      26.656   8.225  -6.085  1.00  0.00     0.113 C
ATOM     32  C   UNL     1      26.790   8.698  -8.473  1.00  0.00     0.083 C
ATOM     33  C   UNL     1      25.701   7.089  -6.493  1.00  0.00     0.175 C
ATOM     34  C   UNL     1      26.221   7.281  -8.787  1.00  0.00     0.179 C
ATOM     35  O   UNL     1      26.174   6.405  -7.651  1.00  0.00    -0.378 OA
BRANCH  32  36
ATOM     36  C   UNL     1      25.696   9.802  -8.527  1.00  0.00     0.032 C
BRANCH  36  37
ATOM     37  C   UNL     1      26.295  11.211  -8.613  1.00  0.00     0.071 C
BRANCH  37  38
ATOM     38  S   UNL     1      26.968  11.550 -10.276  1.00  0.00    -0.162 SA
BRANCH  38  39
ATOM     39  C   UNL     1      27.541  13.276 -10.097  1.00  0.00     0.069 C
ATOM     40  G   UNL     1      27.134  13.882  -8.753  1.00  0.00     0.000 C
ENDBRANCH  38  39
ENDBRANCH  37  38
ENDBRANCH  36  37
ENDBRANCH  32  36
ENDBRANCH  29  30
ENDBRANCH   6  29
TORSDOF 0
ENDMDL
