MODEL 1
REMARK VINA RESULT:     -11.4      0.000      0.000
REMARK SMILES Fc1cc2cc(F)c1CN1CCOC[C@H]1CCCC1(CCNCC1)n1cc(cn1)-c1cnc3cccc-2c3n1
REMARK SMILES IDX 30 1 31 2 32 3 33 4 34 5 35 6 36 7 37 8 38 9 39 10 4 11 2 12
REMARK SMILES IDX 3 13 8 14 6 15 5 16 1 17 7 18 9 19 10 20 11 21 15 22 12 23
REMARK SMILES IDX 14 24 13 25 16 26 27 28 26 29 28 30 25 31 29 32 19 33 20 34
REMARK SMILES IDX 24 35 21 36 23 37 22 38 18 40 17 41
REMARK H PARENT 22 39
REMARK Flexibility Score:   65.900
ROOT
ATOM      1  C   UNL     1      33.225  13.231  -3.630  1.00  0.00     0.092 A
ATOM      2  C   UNL     1      34.373  13.577  -2.942  1.00  0.00     0.140 A
ATOM      3  N   UNL     1      35.067  12.689  -2.186  1.00  0.00    -0.252 NA
ATOM      4  C   UNL     1      34.587  11.430  -2.135  1.00  0.00     0.089 A
ATOM      5  C   UNL     1      35.262  10.477  -1.386  1.00  0.00     0.030 A
ATOM      6  C   UNL     1      34.814   9.159  -1.309  1.00  0.00     0.003 A
ATOM      7  C   UNL     1      33.666   8.782  -1.996  1.00  0.00     0.011 A
ATOM      8  C   UNL     1      32.955   9.723  -2.760  1.00  0.00     0.010 A
ATOM      9  C   UNL     1      33.413  11.055  -2.833  1.00  0.00     0.097 A
ATOM     10  N   UNL     1      32.745  11.969  -3.571  1.00  0.00    -0.244 NA
ENDROOT
BRANCH   8  11
ATOM     11  C   UNL     1      31.746   9.314  -3.502  1.00  0.00    -0.010 A
ATOM     12  C   UNL     1      30.467   7.627  -4.690  1.00  0.00     0.131 A
ATOM     13  C   UNL     1      31.527   7.976  -3.851  1.00  0.00     0.048 A
ATOM     14  C   UNL     1      29.607   8.589  -5.220  1.00  0.00     0.038 A
ATOM     15  C   UNL     1      29.777   9.904  -4.794  1.00  0.00     0.131 A
ATOM     16  C   UNL     1      30.825  10.271  -3.953  1.00  0.00     0.048 A
ATOM     17  F   UNL     1      30.307   6.332  -5.001  1.00  0.00    -0.207 F
ATOM     18  F   UNL     1      28.947  10.864  -5.231  1.00  0.00    -0.207 F
BRANCH  14  19
ATOM     19  C   UNL     1      28.534   8.239  -6.221  1.00  0.00     0.126 C
BRANCH  19  20
ATOM     20  N   UNL     1      27.516   7.321  -5.711  1.00  0.00    -0.291 NA
ATOM     21  C   UNL     1      26.234   7.959  -5.428  1.00  0.00     0.113 C
ATOM     22  C   UNL     1      27.343   5.995  -6.353  1.00  0.00     0.083 C
ATOM     23  C   UNL     1      25.405   7.086  -4.466  1.00  0.00     0.175 C
ATOM     24  C   UNL     1      25.966   5.357  -5.988  1.00  0.00     0.179 C
ATOM     25  O   UNL     1      25.547   5.674  -4.663  1.00  0.00    -0.378 OA
BRANCH  22  26
ATOM     26  C   UNL     1      27.522   5.958  -7.893  1.00  0.00     0.021 C
ATOM     27  G   UNL     1      26.188   6.024  -8.658  1.00  0.00     0.000 C
ENDBRANCH  22  26
ENDBRANCH  19  20
ENDBRANCH  14  19
ENDBRANCH   8  11
BRANCH   1  28
ATOM     28  C   UNL     1      32.469  14.163  -4.442  1.00  0.00     0.040 A
ATOM     29  C   UNL     1      32.656  15.531  -4.422  1.00  0.00     0.119 A
ATOM     30  C   UNL     1      31.443  13.982  -5.388  1.00  0.00     0.145 A
ATOM     31  N   UNL     1      31.748  16.083  -5.283  1.00  0.00    -0.266 N
ATOM     32  N   UNL     1      31.019  15.131  -5.916  1.00  0.00    -0.180 NA
BRANCH  31  33
ATOM     33  C   UNL     1      31.567  17.509  -5.656  1.00  0.00     0.065 C
ATOM     34  C   UNL     1      31.763  18.406  -4.399  1.00  0.00     0.046 C
ATOM     35  C   UNL     1      30.114  17.676  -6.208  1.00  0.00     0.046 C
ATOM     36  C   UNL     1      31.036  19.737  -4.552  1.00  0.00     0.083 C
ATOM     37  C   UNL     1      29.169  18.262  -5.164  1.00  0.00     0.083 C
ATOM     38  N   UNL     1      29.591  19.589  -4.719  1.00  0.00    -0.317 NA
ATOM     39  H   UNL     1      29.238  20.308  -5.350  1.00  0.00     0.122 HD
BRANCH  33  40
ATOM     40  C   UNL     1      32.539  17.952  -6.812  1.00  0.00     0.031 C
BRANCH  40  41
ATOM     41  C   UNL     1      33.952  18.392  -6.389  1.00  0.00     0.004 C
ATOM     42  G   UNL     1      34.207  19.868  -6.742  1.00  0.00     0.000 C
ENDBRANCH  40  41
ENDBRANCH  33  40
ENDBRANCH  31  33
ENDBRANCH   1  28
TORSDOF 0
ENDMDL
MODEL 2
REMARK VINA RESULT:     -11.4      3.415      9.778
REMARK SMILES Fc1cc2cc(F)c1CN1CCOC[C@H]1CCCC1(CCNCC1)n1cc(cn1)-c1cnc3cccc-2c3n1
REMARK SMILES IDX 30 1 31 2 32 3 33 4 34 5 35 6 36 7 37 8 38 9 39 10 4 11 2 12
REMARK SMILES IDX 3 13 8 14 6 15 5 16 1 17 7 18 9 19 10 20 11 21 15 22 12 23
REMARK SMILES IDX 14 24 13 25 16 26 27 28 26 29 28 30 25 31 29 32 19 33 20 34
REMARK SMILES IDX 24 35 21 36 23 37 22 38 18 40 17 41
REMARK H PARENT 22 39
REMARK Flexibility Score:   65.900
ROOT
ATOM      1  C   UNL     1      31.540   9.540  -3.709  1.00  0.00     0.092 A
ATOM      2  C   UNL     1      32.269   8.508  -3.150  1.00  0.00     0.140 A
ATOM      3  N   UNL     1      33.436   8.713  -2.490  1.00  0.00    -0.252 NA
ATOM      4  C   UNL     1      33.864   9.988  -2.394  1.00  0.00     0.089 A
ATOM      5  C   UNL     1      35.047  10.258  -1.720  1.00  0.00     0.030 A
ATOM      6  C   UNL     1      35.527  11.560  -1.583  1.00  0.00     0.003 A
ATOM      7  C   UNL     1      34.811  12.618  -2.131  1.00  0.00     0.011 A
ATOM      8  C   UNL     1      33.612  12.379  -2.824  1.00  0.00     0.010 A
ATOM      9  C   UNL     1      33.131  11.060  -2.959  1.00  0.00     0.097 A
ATOM     10  N   UNL     1      31.975  10.817  -3.616  1.00  0.00    -0.244 NA
ENDROOT
BRANCH   8  11
ATOM     11  C   UNL     1      32.845  13.508  -3.388  1.00  0.00    -0.010 A
ATOM     12  C   UNL     1      32.191  14.879  -5.282  1.00  0.00     0.131 A
ATOM     13  C   UNL     1      32.780  13.721  -4.771  1.00  0.00     0.048 A
ATOM     14  C   UNL     1      31.665  15.863  -4.445  1.00  0.00     0.038 A
ATOM     15  C   UNL     1      31.652  15.599  -3.076  1.00  0.00     0.131 A
ATOM     16  C   UNL     1      32.230  14.447  -2.548  1.00  0.00     0.048 A
ATOM     17  F   UNL     1      32.163  15.039  -6.613  1.00  0.00    -0.207 F
ATOM     18  F   UNL     1      31.113  16.487  -2.227  1.00  0.00    -0.207 F
BRANCH  14  19
ATOM     19  C   UNL     1      31.135  17.170  -4.979  1.00  0.00     0.126 C
BRANCH  19  20
ATOM     20  N   UNL     1      32.164  18.180  -5.222  1.00  0.00    -0.291 NA
ATOM     21  C   UNL     1      32.678  18.181  -6.588  1.00  0.00     0.113 C
ATOM     22  C   UNL     1      31.973  19.556  -4.702  1.00  0.00     0.083 C
ATOM     23  C   UNL     1      34.046  18.889  -6.642  1.00  0.00     0.175 C
ATOM     24  C   UNL     1      32.917  20.574  -5.415  1.00  0.00     0.179 C
ATOM     25  O   UNL     1      34.180  20.008  -5.756  1.00  0.00    -0.378 OA
BRANCH  22  26
ATOM     26  C   UNL     1      30.522  20.101  -4.743  1.00  0.00     0.021 C
ATOM     27  G   UNL     1      30.257  21.026  -5.944  1.00  0.00     0.000 C
ENDBRANCH  22  26
ENDBRANCH  19  20
ENDBRANCH  14  19
ENDBRANCH   8  11
BRANCH   1  28
ATOM     28  C   UNL     1      30.292   9.344  -4.419  1.00  0.00     0.040 A
ATOM     29  C   UNL     1      29.939   8.166  -5.047  1.00  0.00     0.119 A
ATOM     30  C   UNL     1      29.189  10.187  -4.652  1.00  0.00     0.145 A
ATOM     31  N   UNL     1      28.720   8.363  -5.635  1.00  0.00    -0.266 N
ATOM     32  N   UNL     1      28.228   9.596  -5.363  1.00  0.00    -0.180 NA
BRANCH  31  33
ATOM     33  C   UNL     1      27.885   7.395  -6.391  1.00  0.00     0.065 C
ATOM     34  C   UNL     1      26.465   7.994  -6.614  1.00  0.00     0.046 C
ATOM     35  C   UNL     1      27.783   6.087  -5.539  1.00  0.00     0.046 C
ATOM     36  C   UNL     1      25.429   6.895  -6.824  1.00  0.00     0.083 C
ATOM     37  C   UNL     1      26.462   5.999  -4.783  1.00  0.00     0.083 C
ATOM     38  N   UNL     1      25.309   5.990  -5.681  1.00  0.00    -0.317 NA
ATOM     39  H   UNL     1      25.113   5.044  -6.007  1.00  0.00     0.122 HD
BRANCH  33  40
ATOM     40  C   UNL     1      28.537   6.986  -7.763  1.00  0.00     0.031 C
BRANCH  40  41
ATOM     41  C   UNL     1      28.957   8.139  -8.694  1.00  0.00     0.004 C
ATOM     42  G   UNL     1      27.933   8.344  -9.824  1.00  0.00     0.000 C
ENDBRANCH  40  41
ENDBRANCH  33  40
ENDBRANCH  31  33
ENDBRANCH   1  28
TORSDOF 0
ENDMDL
MODEL 3
REMARK VINA RESULT:     -11.2      3.447      9.907
REMARK SMILES Fc1cc2cc(F)c1CN1CCOC[C@H]1CCCC1(CCNCC1)n1cc(cn1)-c1cnc3cccc-2c3n1
REMARK SMILES IDX 30 1 31 2 32 3 33 4 34 5 35 6 36 7 37 8 38 9 39 10 4 11 2 12
REMARK SMILES IDX 3 13 8 14 6 15 5 16 1 17 7 18 9 19 10 20 11 21 15 22 12 23
REMARK SMILES IDX 14 24 13 25 16 26 27 28 26 29 28 30 25 31 29 32 19 33 20 34
REMARK SMILES IDX 24 35 21 36 23 37 22 38 18 40 17 41
REMARK H PARENT 22 39
REMARK Flexibility Score:   65.900
ROOT
ATOM      1  C   UNL     1      31.213   9.621  -3.900  1.00  0.00     0.092 A
ATOM      2  C   UNL     1      31.905   8.547  -3.375  1.00  0.00     0.140 A
ATOM      3  N   UNL     1      33.090   8.686  -2.728  1.00  0.00    -0.252 NA
ATOM      4  C   UNL     1      33.572   9.940  -2.610  1.00  0.00     0.089 A
ATOM      5  C   UNL     1      34.774  10.145  -1.947  1.00  0.00     0.030 A
ATOM      6  C   UNL     1      35.311  11.422  -1.788  1.00  0.00     0.003 A
ATOM      7  C   UNL     1      34.632  12.521  -2.301  1.00  0.00     0.011 A
ATOM      8  C   UNL     1      33.415  12.350  -2.981  1.00  0.00     0.010 A
ATOM      9  C   UNL     1      32.877  11.055  -3.139  1.00  0.00     0.097 A
ATOM     10  N   UNL     1      31.703  10.875  -3.784  1.00  0.00    -0.244 NA
ENDROOT
BRANCH   8  11
ATOM     11  C   UNL     1      32.688  13.522  -3.508  1.00  0.00    -0.010 A
ATOM     12  C   UNL     1      32.144  15.021  -5.339  1.00  0.00     0.131 A
ATOM     13  C   UNL     1      32.695  13.825  -4.876  1.00  0.00     0.048 A
ATOM     14  C   UNL     1      31.585  15.956  -4.466  1.00  0.00     0.038 A
ATOM     15  C   UNL     1      31.500  15.604  -3.120  1.00  0.00     0.131 A
ATOM     16  C   UNL     1      32.040  14.413  -2.640  1.00  0.00     0.048 A
ATOM     17  F   UNL     1      32.184  15.267  -6.656  1.00  0.00    -0.207 F
ATOM     18  F   UNL     1      30.928  16.441  -2.243  1.00  0.00    -0.207 F
BRANCH  14  19
ATOM     19  C   UNL     1      31.095  17.301  -4.939  1.00  0.00     0.126 C
BRANCH  19  20
ATOM     20  N   UNL     1      32.159  18.271  -5.191  1.00  0.00    -0.291 NA
ATOM     21  C   UNL     1      32.643  18.273  -6.569  1.00  0.00     0.113 C
ATOM     22  C   UNL     1      32.036  19.646  -4.647  1.00  0.00     0.083 C
ATOM     23  C   UNL     1      34.037  18.926  -6.643  1.00  0.00     0.175 C
ATOM     24  C   UNL     1      33.005  20.636  -5.367  1.00  0.00     0.179 C
ATOM     25  O   UNL     1      34.236  20.024  -5.745  1.00  0.00    -0.378 OA
BRANCH  22  26
ATOM     26  C   UNL     1      30.608  20.251  -4.648  1.00  0.00     0.021 C
ATOM     27  G   UNL     1      30.269  21.001  -5.948  1.00  0.00     0.000 C
ENDBRANCH  22  26
ENDBRANCH  19  20
ENDBRANCH  14  19
ENDBRANCH   8  11
BRANCH   1  28
ATOM     28  C   UNL     1      29.948   9.493  -4.595  1.00  0.00     0.040 A
ATOM     29  C   UNL     1      29.561   8.366  -5.293  1.00  0.00     0.119 A
ATOM     30  C   UNL     1      28.857  10.369  -4.749  1.00  0.00     0.145 A
ATOM     31  N   UNL     1      28.335   8.622  -5.841  1.00  0.00    -0.266 N
ATOM     32  N   UNL     1      27.871   9.843  -5.478  1.00  0.00    -0.180 NA
BRANCH  31  33
ATOM     33  C   UNL     1      27.467   7.721  -6.642  1.00  0.00     0.065 C
ATOM     34  C   UNL     1      26.370   8.558  -7.363  1.00  0.00     0.046 C
ATOM     35  C   UNL     1      26.800   6.704  -5.659  1.00  0.00     0.046 C
ATOM     36  C   UNL     1      25.149   7.705  -7.687  1.00  0.00     0.083 C
ATOM     37  C   UNL     1      25.367   7.096  -5.316  1.00  0.00     0.083 C
ATOM     38  N   UNL     1      24.509   7.141  -6.499  1.00  0.00    -0.317 NA
ATOM     39  H   UNL     1      24.138   6.215  -6.711  1.00  0.00     0.122 HD
BRANCH  33  40
ATOM     40  C   UNL     1      28.288   6.869  -7.680  1.00  0.00     0.031 C
BRANCH  40  41
ATOM     41  C   UNL     1      28.127   5.340  -7.593  1.00  0.00     0.004 C
ATOM     42  G   UNL     1      29.453   4.660  -7.213  1.00  0.00     0.000 C
ENDBRANCH  40  41
ENDBRANCH  33  40
ENDBRANCH  31  33
ENDBRANCH   1  28
TORSDOF 0
ENDMDL
MODEL 4
REMARK VINA RESULT:     -11.2      3.424      9.888
REMARK SMILES Fc1cc2cc(F)c1CN1CCOC[C@H]1CCCC1(CCNCC1)n1cc(cn1)-c1cnc3cccc-2c3n1
REMARK SMILES IDX 30 1 31 2 32 3 33 4 34 5 35 6 36 7 37 8 38 9 39 10 4 11 2 12
REMARK SMILES IDX 3 13 8 14 6 15 5 16 1 17 7 18 9 19 10 20 11 21 15 22 12 23
REMARK SMILES IDX 14 24 13 25 16 26 27 28 26 29 28 30 25 31 29 32 19 33 20 34
REMARK SMILES IDX 24 35 21 36 23 37 22 38 18 40 17 41
REMARK H PARENT 22 39
REMARK Flexibility Score:   65.900
ROOT
ATOM      1  C   UNL     1      31.507   9.648  -3.638  1.00  0.00     0.092 A
ATOM      2  C   UNL     1      32.240   8.614  -3.089  1.00  0.00     0.140 A
ATOM      3  N   UNL     1      33.431   8.810  -2.468  1.00  0.00    -0.252 NA
ATOM      4  C   UNL     1      33.877  10.081  -2.403  1.00  0.00     0.089 A
ATOM      5  C   UNL     1      35.085  10.344  -1.770  1.00  0.00     0.030 A
ATOM      6  C   UNL     1      35.586  11.640  -1.665  1.00  0.00     0.003 A
ATOM      7  C   UNL     1      34.866  12.701  -2.203  1.00  0.00     0.011 A
ATOM      8  C   UNL     1      33.643  12.470  -2.855  1.00  0.00     0.010 A
ATOM      9  C   UNL     1      33.141  11.156  -2.958  1.00  0.00     0.097 A
ATOM     10  N   UNL     1      31.962  10.920  -3.574  1.00  0.00    -0.244 NA
ENDROOT
BRANCH   8  11
ATOM     11  C   UNL     1      32.873  13.602  -3.409  1.00  0.00    -0.010 A
ATOM     12  C   UNL     1      32.184  14.963  -5.297  1.00  0.00     0.131 A
ATOM     13  C   UNL     1      32.774  13.804  -4.791  1.00  0.00     0.048 A
ATOM     14  C   UNL     1      31.690  15.960  -4.455  1.00  0.00     0.038 A
ATOM     15  C   UNL     1      31.709  15.708  -3.085  1.00  0.00     0.131 A
ATOM     16  C   UNL     1      32.290  14.555  -2.561  1.00  0.00     0.048 A
ATOM     17  F   UNL     1      32.122  15.112  -6.629  1.00  0.00    -0.207 F
ATOM     18  F   UNL     1      31.202  16.608  -2.230  1.00  0.00    -0.207 F
BRANCH  14  19
ATOM     19  C   UNL     1      31.159  17.268  -4.987  1.00  0.00     0.126 C
BRANCH  19  20
ATOM     20  N   UNL     1      32.188  18.279  -5.225  1.00  0.00    -0.291 NA
ATOM     21  C   UNL     1      32.753  18.240  -6.570  1.00  0.00     0.113 C
ATOM     22  C   UNL     1      31.965  19.670  -4.759  1.00  0.00     0.083 C
ATOM     23  C   UNL     1      34.116  18.960  -6.597  1.00  0.00     0.175 C
ATOM     24  C   UNL     1      32.925  20.674  -5.471  1.00  0.00     0.179 C
ATOM     25  O   UNL     1      34.205  20.109  -5.745  1.00  0.00    -0.378 OA
BRANCH  22  26
ATOM     26  C   UNL     1      30.511  20.199  -4.874  1.00  0.00     0.021 C
ATOM     27  G   UNL     1      30.370  21.371  -5.861  1.00  0.00     0.000 C
ENDBRANCH  22  26
ENDBRANCH  19  20
ENDBRANCH  14  19
ENDBRANCH   8  11
BRANCH   1  28
ATOM     28  C   UNL     1      30.234   9.460  -4.305  1.00  0.00     0.040 A
ATOM     29  C   UNL     1      29.915   8.347  -5.057  1.00  0.00     0.119 A
ATOM     30  C   UNL     1      29.074  10.253  -4.377  1.00  0.00     0.145 A
ATOM     31  N   UNL     1      28.656   8.535  -5.556  1.00  0.00    -0.266 N
ATOM     32  N   UNL     1      28.110   9.692  -5.109  1.00  0.00    -0.180 NA
BRANCH  31  33
ATOM     33  C   UNL     1      27.837   7.614  -6.386  1.00  0.00     0.065 C
ATOM     34  C   UNL     1      28.729   6.975  -7.490  1.00  0.00     0.046 C
ATOM     35  C   UNL     1      26.696   8.456  -7.046  1.00  0.00     0.046 C
ATOM     36  C   UNL     1      27.893   6.526  -8.684  1.00  0.00     0.083 C
ATOM     37  C   UNL     1      27.012   8.812  -8.495  1.00  0.00     0.083 C
ATOM     38  N   UNL     1      27.178   7.625  -9.331  1.00  0.00    -0.317 NA
ATOM     39  H   UNL     1      26.276   7.298  -9.675  1.00  0.00     0.122 HD
BRANCH  33  40
ATOM     40  C   UNL     1      27.132   6.501  -5.526  1.00  0.00     0.031 C
BRANCH  40  41
ATOM     41  C   UNL     1      25.595   6.545  -5.472  1.00  0.00     0.004 C
ATOM     42  G   UNL     1      25.094   6.861  -4.052  1.00  0.00     0.000 C
ENDBRANCH  40  41
ENDBRANCH  33  40
ENDBRANCH  31  33
ENDBRANCH   1  28
TORSDOF 0
ENDMDL
MODEL 5
REMARK VINA RESULT:     -11.1      1.645      2.827
REMARK SMILES Fc1cc2cc(F)c1CN1CCOC[C@H]1CCCC1(CCNCC1)n1cc(cn1)-c1cnc3cccc-2c3n1
REMARK SMILES IDX 30 1 31 2 32 3 33 4 34 5 35 6 36 7 37 8 38 9 39 10 4 11 2 12
REMARK SMILES IDX 3 13 8 14 6 15 5 16 1 17 7 18 9 19 10 20 11 21 15 22 12 23
REMARK SMILES IDX 14 24 13 25 16 26 27 28 26 29 28 30 25 31 29 32 19 33 20 34
REMARK SMILES IDX 24 35 21 36 23 37 22 38 18 40 17 41
REMARK H PARENT 22 39
REMARK Flexibility Score:   65.900
ROOT
ATOM      1  C   UNL     1      32.857  13.399  -3.794  1.00  0.00     0.092 A
ATOM      2  C   UNL     1      34.008  13.828  -3.161  1.00  0.00     0.140 A
ATOM      3  N   UNL     1      34.788  12.999  -2.423  1.00  0.00    -0.252 NA
ATOM      4  C   UNL     1      34.392  11.714  -2.334  1.00  0.00     0.089 A
ATOM      5  C   UNL     1      35.157  10.817  -1.601  1.00  0.00     0.030 A
ATOM      6  C   UNL     1      34.797   9.475  -1.487  1.00  0.00     0.003 A
ATOM      7  C   UNL     1      33.648   9.015  -2.119  1.00  0.00     0.011 A
ATOM      8  C   UNL     1      32.848   9.896  -2.865  1.00  0.00     0.010 A
ATOM      9  C   UNL     1      33.216  11.253  -2.977  1.00  0.00     0.097 A
ATOM     10  N   UNL     1      32.461  12.111  -3.698  1.00  0.00    -0.244 NA
ENDROOT
BRANCH   8  11
ATOM     11  C   UNL     1      31.638   9.400  -3.550  1.00  0.00    -0.010 A
ATOM     12  C   UNL     1      30.452   7.643  -4.733  1.00  0.00     0.131 A
ATOM     13  C   UNL     1      31.525   8.061  -3.946  1.00  0.00     0.048 A
ATOM     14  C   UNL     1      29.470   8.535  -5.165  1.00  0.00     0.038 A
ATOM     15  C   UNL     1      29.540   9.843  -4.689  1.00  0.00     0.131 A
ATOM     16  C   UNL     1      30.601  10.278  -3.898  1.00  0.00     0.048 A
ATOM     17  F   UNL     1      30.397   6.352  -5.093  1.00  0.00    -0.207 F
ATOM     18  F   UNL     1      28.595  10.732  -5.030  1.00  0.00    -0.207 F
BRANCH  14  19
ATOM     19  C   UNL     1      28.372   8.122  -6.112  1.00  0.00     0.126 C
BRANCH  19  20
ATOM     20  N   UNL     1      27.382   7.220  -5.525  1.00  0.00    -0.291 NA
ATOM     21  C   UNL     1      26.070   7.829  -5.329  1.00  0.00     0.113 C
ATOM     22  C   UNL     1      27.275   5.828  -6.027  1.00  0.00     0.083 C
ATOM     23  C   UNL     1      25.258   7.026  -4.294  1.00  0.00     0.175 C
ATOM     24  C   UNL     1      25.918   5.173  -5.619  1.00  0.00     0.179 C
ATOM     25  O   UNL     1      25.461   5.608  -4.340  1.00  0.00    -0.378 OA
BRANCH  22  26
ATOM     26  C   UNL     1      27.485   5.639  -7.552  1.00  0.00     0.021 C
ATOM     27  G   UNL     1      28.720   4.787  -7.892  1.00  0.00     0.000 C
ENDBRANCH  22  26
ENDBRANCH  19  20
ENDBRANCH  14  19
ENDBRANCH   8  11
BRANCH   1  28
ATOM     28  C   UNL     1      32.010  14.268  -4.587  1.00  0.00     0.040 A
ATOM     29  C   UNL     1      30.630  14.231  -4.563  1.00  0.00     0.119 A
ATOM     30  C   UNL     1      32.298  15.294  -5.507  1.00  0.00     0.145 A
ATOM     31  N   UNL     1      30.178  15.161  -5.458  1.00  0.00    -0.266 N
ATOM     32  N   UNL     1      31.200  15.853  -6.018  1.00  0.00    -0.180 NA
BRANCH  31  33
ATOM     33  C   UNL     1      28.778  15.545  -5.773  1.00  0.00     0.065 C
ATOM     34  C   UNL     1      28.693  16.039  -7.247  1.00  0.00     0.046 C
ATOM     35  C   UNL     1      28.370  16.699  -4.801  1.00  0.00     0.046 C
ATOM     36  C   UNL     1      27.502  16.969  -7.450  1.00  0.00     0.083 C
ATOM     37  C   UNL     1      28.456  18.067  -5.469  1.00  0.00     0.083 C
ATOM     38  N   UNL     1      27.566  18.175  -6.624  1.00  0.00    -0.317 NA
ATOM     39  H   UNL     1      26.628  18.447  -6.332  1.00  0.00     0.122 HD
BRANCH  33  40
ATOM     40  C   UNL     1      27.764  14.368  -5.522  1.00  0.00     0.031 C
BRANCH  40  41
ATOM     41  C   UNL     1      26.503  14.710  -4.709  1.00  0.00     0.004 C
ATOM     42  G   UNL     1      25.239  14.132  -5.369  1.00  0.00     0.000 C
ENDBRANCH  40  41
ENDBRANCH  33  40
ENDBRANCH  31  33
ENDBRANCH   1  28
TORSDOF 0
ENDMDL
MODEL 6
REMARK VINA RESULT:     -11.1      3.354      9.114
REMARK SMILES Fc1cc2cc(F)c1CN1CCOC[C@H]1CCCC1(CCNCC1)n1cc(cn1)-c1cnc3cccc-2c3n1
REMARK SMILES IDX 30 1 31 2 32 3 33 4 34 5 35 6 36 7 37 8 38 9 39 10 4 11 2 12
REMARK SMILES IDX 3 13 8 14 6 15 5 16 1 17 7 18 9 19 10 20 11 21 15 22 12 23
REMARK SMILES IDX 14 24 13 25 16 26 27 28 26 29 28 30 25 31 29 32 19 33 20 34
REMARK SMILES IDX 24 35 21 36 23 37 22 38 18 40 17 41
REMARK H PARENT 22 39
REMARK Flexibility Score:   65.900
ROOT
ATOM      1  C   UNL     1      32.230   9.239  -3.299  1.00  0.00     0.092 A
ATOM      2  C   UNL     1      33.017   8.314  -2.641  1.00  0.00     0.140 A
ATOM      3  N   UNL     1      34.116   8.666  -1.926  1.00  0.00    -0.252 NA
ATOM      4  C   UNL     1      34.412   9.980  -1.879  1.00  0.00     0.089 A
ATOM      5  C   UNL     1      35.519  10.401  -1.154  1.00  0.00     0.030 A
ATOM      6  C   UNL     1      35.863  11.749  -1.065  1.00  0.00     0.003 A
ATOM      7  C   UNL     1      35.084  12.701  -1.712  1.00  0.00     0.011 A
ATOM      8  C   UNL     1      33.961  12.310  -2.459  1.00  0.00     0.010 A
ATOM      9  C   UNL     1      33.618  10.945  -2.546  1.00  0.00     0.097 A
ATOM     10  N   UNL     1      32.534  10.555  -3.254  1.00  0.00    -0.244 NA
ENDROOT
BRANCH   8  11
ATOM     11  C   UNL     1      33.126  13.327  -3.131  1.00  0.00    -0.010 A
ATOM     12  C   UNL     1      32.359  14.428  -5.154  1.00  0.00     0.131 A
ATOM     13  C   UNL     1      33.016  13.368  -4.526  1.00  0.00     0.048 A
ATOM     14  C   UNL     1      31.809  15.482  -4.424  1.00  0.00     0.038 A
ATOM     15  C   UNL     1      31.843  15.386  -3.034  1.00  0.00     0.131 A
ATOM     16  C   UNL     1      32.489  14.333  -2.390  1.00  0.00     0.048 A
ATOM     17  F   UNL     1      32.290  14.424  -6.493  1.00  0.00    -0.207 F
ATOM     18  F   UNL     1      31.284  16.345  -2.282  1.00  0.00    -0.207 F
BRANCH  14  19
ATOM     19  C   UNL     1      31.203  16.690  -5.095  1.00  0.00     0.126 C
BRANCH  19  20
ATOM     20  N   UNL     1      32.148  17.781  -5.330  1.00  0.00    -0.291 NA
ATOM     21  C   UNL     1      32.760  17.757  -6.654  1.00  0.00     0.113 C
ATOM     22  C   UNL     1      31.789  19.159  -4.912  1.00  0.00     0.083 C
ATOM     23  C   UNL     1      34.055  18.593  -6.658  1.00  0.00     0.175 C
ATOM     24  C   UNL     1      32.682  20.224  -5.621  1.00  0.00     0.179 C
ATOM     25  O   UNL     1      34.015  19.767  -5.838  1.00  0.00    -0.378 OA
BRANCH  22  26
ATOM     26  C   UNL     1      30.300  19.555  -5.088  1.00  0.00     0.021 C
ATOM     27  G   UNL     1      30.109  20.837  -5.916  1.00  0.00     0.000 C
ENDBRANCH  22  26
ENDBRANCH  19  20
ENDBRANCH  14  19
ENDBRANCH   8  11
BRANCH   1  28
ATOM     28  C   UNL     1      31.053   8.883  -4.067  1.00  0.00     0.040 A
ATOM     29  C   UNL     1      30.009   9.751  -4.324  1.00  0.00     0.119 A
ATOM     30  C   UNL     1      30.663   7.695  -4.712  1.00  0.00     0.145 A
ATOM     31  N   UNL     1      29.069   9.062  -5.040  1.00  0.00    -0.266 N
ATOM     32  N   UNL     1      29.481   7.801  -5.320  1.00  0.00    -0.180 NA
BRANCH  31  33
ATOM     33  C   UNL     1      27.784   9.551  -5.601  1.00  0.00     0.065 C
ATOM     34  C   UNL     1      27.849   9.521  -7.156  1.00  0.00     0.046 C
ATOM     35  C   UNL     1      27.578  11.021  -5.106  1.00  0.00     0.046 C
ATOM     36  C   UNL     1      26.872  10.518  -7.769  1.00  0.00     0.083 C
ATOM     37  C   UNL     1      27.954  12.042  -6.174  1.00  0.00     0.083 C
ATOM     38  N   UNL     1      27.144  11.902  -7.382  1.00  0.00    -0.317 NA
ATOM     39  H   UNL     1      26.268  12.416  -7.289  1.00  0.00     0.122 HD
BRANCH  33  40
ATOM     40  C   UNL     1      26.551   8.726  -5.079  1.00  0.00     0.031 C
BRANCH  40  41
ATOM     41  C   UNL     1      26.052   7.588  -5.988  1.00  0.00     0.004 C
ATOM     42  G   UNL     1      26.192   6.220  -5.299  1.00  0.00     0.000 C
ENDBRANCH  40  41
ENDBRANCH  33  40
ENDBRANCH  31  33
ENDBRANCH   1  28
TORSDOF 0
ENDMDL
MODEL 7
REMARK VINA RESULT:     -11.1      3.338      9.583
REMARK SMILES Fc1cc2cc(F)c1CN1CCOC[C@H]1CCCC1(CCNCC1)n1cc(cn1)-c1cnc3cccc-2c3n1
REMARK SMILES IDX 30 1 31 2 32 3 33 4 34 5 35 6 36 7 37 8 38 9 39 10 4 11 2 12
REMARK SMILES IDX 3 13 8 14 6 15 5 16 1 17 7 18 9 19 10 20 11 21 15 22 12 23
REMARK SMILES IDX 14 24 13 25 16 26 27 28 26 29 28 30 25 31 29 32 19 33 20 34
REMARK SMILES IDX 24 35 21 36 23 37 22 38 18 40 17 41
REMARK H PARENT 22 39
REMARK Flexibility Score:   65.900
ROOT
ATOM      1  C   UNL     1      31.743   9.678  -3.453  1.00  0.00     0.092 A
ATOM      2  C   UNL     1      32.441   8.615  -2.911  1.00  0.00     0.140 A
ATOM      3  N   UNL     1      33.623   8.771  -2.265  1.00  0.00    -0.252 NA
ATOM      4  C   UNL     1      34.098  10.030  -2.165  1.00  0.00     0.089 A
ATOM      5  C   UNL     1      35.299  10.251  -1.504  1.00  0.00     0.030 A
ATOM      6  C   UNL     1      35.828  11.533  -1.364  1.00  0.00     0.003 A
ATOM      7  C   UNL     1      35.143  12.621  -1.893  1.00  0.00     0.011 A
ATOM      8  C   UNL     1      33.928  12.432  -2.572  1.00  0.00     0.010 A
ATOM      9  C   UNL     1      33.398  11.133  -2.712  1.00  0.00     0.097 A
ATOM     10  N   UNL     1      32.225  10.937  -3.354  1.00  0.00    -0.244 NA
ENDROOT
BRANCH   8  11
ATOM     11  C   UNL     1      33.195  13.592  -3.117  1.00  0.00    -0.010 A
ATOM     12  C   UNL     1      31.655  15.447  -2.822  1.00  0.00     0.131 A
ATOM     13  C   UNL     1      32.474  14.454  -2.281  1.00  0.00     0.048 A
ATOM     14  C   UNL     1      31.513  15.606  -4.201  1.00  0.00     0.038 A
ATOM     15  C   UNL     1      32.305  14.806  -5.023  1.00  0.00     0.131 A
ATOM     16  C   UNL     1      33.132  13.814  -4.501  1.00  0.00     0.048 A
ATOM     17  F   UNL     1      30.979  16.239  -1.977  1.00  0.00    -0.207 F
ATOM     18  F   UNL     1      32.249  14.950  -6.355  1.00  0.00    -0.207 F
BRANCH  14  19
ATOM     19  C   UNL     1      30.543  16.595  -4.797  1.00  0.00     0.126 C
BRANCH  19  20
ATOM     20  N   UNL     1      31.027  17.975  -4.811  1.00  0.00    -0.291 NA
ATOM     21  C   UNL     1      32.109  18.212  -5.761  1.00  0.00     0.113 C
ATOM     22  C   UNL     1      30.048  19.090  -4.797  1.00  0.00     0.083 C
ATOM     23  C   UNL     1      32.877  19.494  -5.386  1.00  0.00     0.175 C
ATOM     24  C   UNL     1      30.702  20.431  -5.256  1.00  0.00     0.179 C
ATOM     25  O   UNL     1      32.064  20.546  -4.850  1.00  0.00    -0.378 OA
BRANCH  22  26
ATOM     26  C   UNL     1      28.748  18.862  -5.610  1.00  0.00     0.021 C
ATOM     27  G   UNL     1      28.616  19.806  -6.818  1.00  0.00     0.000 C
ENDBRANCH  22  26
ENDBRANCH  19  20
ENDBRANCH  14  19
ENDBRANCH   8  11
BRANCH   1  28
ATOM     28  C   UNL     1      30.479   9.533  -4.147  1.00  0.00     0.040 A
ATOM     29  C   UNL     1      30.140   8.433  -4.910  1.00  0.00     0.119 A
ATOM     30  C   UNL     1      29.346  10.363  -4.240  1.00  0.00     0.145 A
ATOM     31  N   UNL     1      28.898   8.664  -5.435  1.00  0.00    -0.266 N
ATOM     32  N   UNL     1      28.380   9.836  -4.995  1.00  0.00    -0.180 NA
BRANCH  31  33
ATOM     33  C   UNL     1      28.068   7.773  -6.285  1.00  0.00     0.065 C
ATOM     34  C   UNL     1      28.886   6.504  -6.666  1.00  0.00     0.046 C
ATOM     35  C   UNL     1      27.687   8.568  -7.577  1.00  0.00     0.046 C
ATOM     36  C   UNL     1      28.364   5.876  -7.954  1.00  0.00     0.083 C
ATOM     37  C   UNL     1      28.568   8.187  -8.763  1.00  0.00     0.083 C
ATOM     38  N   UNL     1      28.450   6.772  -9.107  1.00  0.00    -0.317 NA
ATOM     39  H   UNL     1      27.656   6.616  -9.727  1.00  0.00     0.122 HD
BRANCH  33  40
ATOM     40  C   UNL     1      26.714   7.373  -5.590  1.00  0.00     0.031 C
BRANCH  40  41
ATOM     41  C   UNL     1      25.433   7.564  -6.421  1.00  0.00     0.004 C
ATOM     42  G   UNL     1      24.729   6.221  -6.678  1.00  0.00     0.000 C
ENDBRANCH  40  41
ENDBRANCH  33  40
ENDBRANCH  31  33
ENDBRANCH   1  28
TORSDOF 0
ENDMDL
MODEL 8
REMARK VINA RESULT:     -11.0      3.456      9.990
REMARK SMILES Fc1cc2cc(F)c1CN1CCOC[C@H]1CCCC1(CCNCC1)n1cc(cn1)-c1cnc3cccc-2c3n1
REMARK SMILES IDX 30 1 31 2 32 3 33 4 34 5 35 6 36 7 37 8 38 9 39 10 4 11 2 12
REMARK SMILES IDX 3 13 8 14 6 15 5 16 1 17 7 18 9 19 10 20 11 21 15 22 12 23
REMARK SMILES IDX 14 24 13 25 16 26 27 28 26 29 28 30 25 31 29 32 19 33 20 34
REMARK SMILES IDX 24 35 21 36 23 37 22 38 18 40 17 41
REMARK H PARENT 22 39
REMARK Flexibility Score:   65.900
ROOT
ATOM      1  C   UNL     1      31.499   9.634  -3.732  1.00  0.00     0.092 A
ATOM      2  C   UNL     1      32.219   8.593  -3.178  1.00  0.00     0.140 A
ATOM      3  N   UNL     1      33.388   8.783  -2.517  1.00  0.00    -0.252 NA
ATOM      4  C   UNL     1      33.827  10.054  -2.416  1.00  0.00     0.089 A
ATOM      5  C   UNL     1      35.013  10.311  -1.741  1.00  0.00     0.030 A
ATOM      6  C   UNL     1      35.505  11.608  -1.599  1.00  0.00     0.003 A
ATOM      7  C   UNL     1      34.797  12.674  -2.141  1.00  0.00     0.011 A
ATOM      8  C   UNL     1      33.596  12.450  -2.835  1.00  0.00     0.010 A
ATOM      9  C   UNL     1      33.104  11.136  -2.976  1.00  0.00     0.097 A
ATOM     10  N   UNL     1      31.946  10.905  -3.633  1.00  0.00    -0.244 NA
ENDROOT
BRANCH   8  11
ATOM     11  C   UNL     1      32.839  13.588  -3.394  1.00  0.00    -0.010 A
ATOM     12  C   UNL     1      32.213  14.987  -5.277  1.00  0.00     0.131 A
ATOM     13  C   UNL     1      32.793  13.821  -4.774  1.00  0.00     0.048 A
ATOM     14  C   UNL     1      31.678  15.960  -4.433  1.00  0.00     0.038 A
ATOM     15  C   UNL     1      31.645  15.677  -3.069  1.00  0.00     0.131 A
ATOM     16  C   UNL     1      32.214  14.516  -2.548  1.00  0.00     0.048 A
ATOM     17  F   UNL     1      32.204  15.166  -6.606  1.00  0.00    -0.207 F
ATOM     18  F   UNL     1      31.096  16.553  -2.214  1.00  0.00    -0.207 F
BRANCH  14  19
ATOM     19  C   UNL     1      31.157  17.275  -4.955  1.00  0.00     0.126 C
BRANCH  19  20
ATOM     20  N   UNL     1      32.197  18.268  -5.222  1.00  0.00    -0.291 NA
ATOM     21  C   UNL     1      32.654  18.286  -6.608  1.00  0.00     0.113 C
ATOM     22  C   UNL     1      32.057  19.637  -4.668  1.00  0.00     0.083 C
ATOM     23  C   UNL     1      34.034  18.967  -6.705  1.00  0.00     0.175 C
ATOM     24  C   UNL     1      32.992  20.650  -5.400  1.00  0.00     0.179 C
ATOM     25  O   UNL     1      34.228  20.064  -5.805  1.00  0.00    -0.378 OA
BRANCH  22  26
ATOM     26  C   UNL     1      30.618  20.214  -4.639  1.00  0.00     0.021 C
ATOM     27  G   UNL     1      30.279  21.059  -5.879  1.00  0.00     0.000 C
ENDBRANCH  22  26
ENDBRANCH  19  20
ENDBRANCH  14  19
ENDBRANCH   8  11
BRANCH   1  28
ATOM     28  C   UNL     1      30.248   9.452  -4.442  1.00  0.00     0.040 A
ATOM     29  C   UNL     1      29.870   8.269  -5.047  1.00  0.00     0.119 A
ATOM     30  C   UNL     1      29.167  10.315  -4.697  1.00  0.00     0.145 A
ATOM     31  N   UNL     1      28.658   8.482  -5.643  1.00  0.00    -0.266 N
ATOM     32  N   UNL     1      28.195   9.732  -5.399  1.00  0.00    -0.180 NA
BRANCH  31  33
ATOM     33  C   UNL     1      27.803   7.518  -6.382  1.00  0.00     0.065 C
ATOM     34  C   UNL     1      27.589   6.241  -5.516  1.00  0.00     0.046 C
ATOM     35  C   UNL     1      28.543   7.143  -7.707  1.00  0.00     0.046 C
ATOM     36  C   UNL     1      27.261   5.033  -6.387  1.00  0.00     0.083 C
ATOM     37  C   UNL     1      29.253   5.797  -7.606  1.00  0.00     0.083 C
ATOM     38  N   UNL     1      28.323   4.702  -7.336  1.00  0.00    -0.317 NA
ATOM     39  H   UNL     1      27.918   4.352  -8.203  1.00  0.00     0.122 HD
BRANCH  33  40
ATOM     40  C   UNL     1      26.421   8.143  -6.801  1.00  0.00     0.031 C
BRANCH  40  41
ATOM     41  C   UNL     1      26.014   7.981  -8.276  1.00  0.00     0.004 C
ATOM     42  G   UNL     1      24.525   8.312  -8.484  1.00  0.00     0.000 C
ENDBRANCH  40  41
ENDBRANCH  33  40
ENDBRANCH  31  33
ENDBRANCH   1  28
TORSDOF 0
ENDMDL
MODEL 9
REMARK VINA RESULT:     -11.0      1.802      2.782
REMARK SMILES Fc1cc2cc(F)c1CN1CCOC[C@H]1CCCC1(CCNCC1)n1cc(cn1)-c1cnc3cccc-2c3n1
REMARK SMILES IDX 30 1 31 2 32 3 33 4 34 5 35 6 36 7 37 8 38 9 39 10 4 11 2 12
REMARK SMILES IDX 3 13 8 14 6 15 5 16 1 17 7 18 9 19 10 20 11 21 15 22 12 23
REMARK SMILES IDX 14 24 13 25 16 26 27 28 26 29 28 30 25 31 29 32 19 33 20 34
REMARK SMILES IDX 24 35 21 36 23 37 22 38 18 40 17 41
REMARK H PARENT 22 39
REMARK Flexibility Score:   65.900
ROOT
ATOM      1  C   UNL     1      32.616  13.312  -3.929  1.00  0.00     0.092 A
ATOM      2  C   UNL     1      33.757  13.790  -3.314  1.00  0.00     0.140 A
ATOM      3  N   UNL     1      34.581  12.996  -2.585  1.00  0.00    -0.252 NA
ATOM      4  C   UNL     1      34.238  11.696  -2.486  1.00  0.00     0.089 A
ATOM      5  C   UNL     1      35.050  10.834  -1.760  1.00  0.00     0.030 A
ATOM      6  C   UNL     1      34.746   9.479  -1.636  1.00  0.00     0.003 A
ATOM      7  C   UNL     1      33.608   8.970  -2.250  1.00  0.00     0.011 A
ATOM      8  C   UNL     1      32.762   9.815  -2.987  1.00  0.00     0.010 A
ATOM      9  C   UNL     1      33.073  11.185  -3.109  1.00  0.00     0.097 A
ATOM     10  N   UNL     1      32.274  12.009  -3.822  1.00  0.00    -0.244 NA
ENDROOT
BRANCH   8  11
ATOM     11  C   UNL     1      31.563   9.268  -3.652  1.00  0.00    -0.010 A
ATOM     12  C   UNL     1      30.394   7.424  -4.715  1.00  0.00     0.131 A
ATOM     13  C   UNL     1      31.454   7.902  -3.944  1.00  0.00     0.048 A
ATOM     14  C   UNL     1      29.421   8.280  -5.233  1.00  0.00     0.038 A
ATOM     15  C   UNL     1      29.487   9.622  -4.861  1.00  0.00     0.131 A
ATOM     16  C   UNL     1      30.534  10.117  -4.088  1.00  0.00     0.048 A
ATOM     17  F   UNL     1      30.342   6.109  -4.973  1.00  0.00    -0.207 F
ATOM     18  F   UNL     1      28.550  10.482  -5.287  1.00  0.00    -0.207 F
BRANCH  14  19
ATOM     19  C   UNL     1      28.340   7.795  -6.164  1.00  0.00     0.126 C
BRANCH  19  20
ATOM     20  N   UNL     1      27.341   6.938  -5.527  1.00  0.00    -0.291 NA
ATOM     21  C   UNL     1      26.022   7.552  -5.414  1.00  0.00     0.113 C
ATOM     22  C   UNL     1      27.253   5.508  -5.913  1.00  0.00     0.083 C
ATOM     23  C   UNL     1      25.189   6.833  -4.335  1.00  0.00     0.175 C
ATOM     24  C   UNL     1      25.890   4.881  -5.483  1.00  0.00     0.179 C
ATOM     25  O   UNL     1      25.400   5.418  -4.256  1.00  0.00    -0.378 OA
BRANCH  22  26
ATOM     26  C   UNL     1      27.500   5.193  -7.411  1.00  0.00     0.021 C
ATOM     27  G   UNL     1      28.800   4.406  -7.657  1.00  0.00     0.000 C
ENDBRANCH  22  26
ENDBRANCH  19  20
ENDBRANCH  14  19
ENDBRANCH   8  11
BRANCH   1  28
ATOM     28  C   UNL     1      31.723  14.143  -4.712  1.00  0.00     0.040 A
ATOM     29  C   UNL     1      30.348  14.009  -4.714  1.00  0.00     0.119 A
ATOM     30  C   UNL     1      31.953  15.212  -5.598  1.00  0.00     0.145 A
ATOM     31  N   UNL     1      29.846  14.931  -5.590  1.00  0.00    -0.266 N
ATOM     32  N   UNL     1      30.827  15.708  -6.112  1.00  0.00    -0.180 NA
BRANCH  31  33
ATOM     33  C   UNL     1      28.428  15.226  -5.920  1.00  0.00     0.065 C
ATOM     34  C   UNL     1      27.521  14.828  -4.719  1.00  0.00     0.046 C
ATOM     35  C   UNL     1      28.047  14.380  -7.178  1.00  0.00     0.046 C
ATOM     36  C   UNL     1      26.095  14.541  -5.177  1.00  0.00     0.083 C
ATOM     37  C   UNL     1      27.265  13.124  -6.808  1.00  0.00     0.083 C
ATOM     38  N   UNL     1      26.008  13.435  -6.130  1.00  0.00    -0.317 NA
ATOM     39  H   UNL     1      25.269  13.618  -6.808  1.00  0.00     0.122 HD
BRANCH  33  40
ATOM     40  C   UNL     1      28.206  16.734  -6.309  1.00  0.00     0.031 C
BRANCH  40  41
ATOM     41  C   UNL     1      28.109  17.737  -5.145  1.00  0.00     0.004 C
ATOM     42  G   UNL     1      29.164  18.849  -5.276  1.00  0.00     0.000 C
ENDBRANCH  40  41
ENDBRANCH  33  40
ENDBRANCH  31  33
ENDBRANCH   1  28
TORSDOF 0
ENDMDL
