MODEL 1
REMARK VINA RESULT:      -8.3      0.000      0.000
REMARK SMILES N#C[C@]12CCCCCC[C@]3(CC3)c3cnc4[nH]cc(c4n3)C(=O)N[C@H](C3CC3)C(=O)N(C1)C2
REMARK SMILES IDX 22 1 23 2 24 3 25 5 29 6 30 7 31 8 1 9 2 10 3 11 32 12 33 13
REMARK SMILES IDX 4 14 5 15 6 16 26 18 27 19 28 20 19 21 18 22 20 23 17 24
REMARK SMILES IDX 21 25 16 26 13 27 15 28 14 29 10 31 11 32 12 33 9 34 8 35
REMARK SMILES IDX 7 36
REMARK H PARENT 24 4 17 30
REMARK Flexibility Score:   84.900
ROOT
ATOM      1  C   UNL     1      29.589  10.554  -4.511  1.00  0.00     0.255 C
ATOM      2  O   UNL     1      28.381  10.352  -4.434  1.00  0.00    -0.269 OA
ATOM      3  N   UNL     1      30.131  11.708  -5.015  1.00  0.00    -0.340 N
ATOM      4  H   UNL     1      31.146  11.780  -4.986  1.00  0.00     0.164 HD
ENDROOT
BRANCH   3   5
ATOM      5  C   UNL     1      29.404  12.963  -5.110  1.00  0.00     0.175 C
BRANCH   5   6
ATOM      6  C   UNL     1      30.444  14.000  -5.619  1.00  0.00     0.245 C
ATOM      7  O   UNL     1      31.573  13.662  -5.997  1.00  0.00    -0.272 OA
BRANCH   6   8
ATOM      8  N   UNL     1      30.110  15.319  -5.653  1.00  0.00    -0.338 N
ATOM      9  N   UNL     1      28.933  19.503  -5.316  1.00  0.00    -0.198 NA
ATOM     10  C   UNL     1      29.572  18.534  -5.308  1.00  0.00     0.073 C
ATOM     11  C   UNL     1      30.375  17.325  -5.307  1.00  0.00     0.092 C
ATOM     12  C   UNL     1      29.685  16.154  -4.541  1.00  0.00     0.143 C
ATOM     13  C   UNL     1      30.166  16.428  -6.579  1.00  0.00     0.143 C
BRANCH  11  14
ATOM     14  C   UNL     1      31.873  17.647  -5.063  1.00  0.00     0.026 C
BRANCH  14  15
ATOM     15  C   UNL     1      32.478  18.642  -6.065  1.00  0.00     0.002 C
BRANCH  15  16
ATOM     16  C   UNL     1      33.143  19.817  -5.334  1.00  0.00     0.000 C
ATOM     17  G   UNL     1      32.304  21.097  -5.350  1.00  0.00     0.000 C
ENDBRANCH  15  16
ENDBRANCH  14  15
ENDBRANCH  11  14
ENDBRANCH   6   8
ENDBRANCH   5   6
BRANCH   5  18
ATOM     18  C   UNL     1      28.255  12.730  -6.063  1.00  0.00     0.021 C
ATOM     19  C   UNL     1      27.685  13.858  -6.893  1.00  0.00     0.006 C
ATOM     20  C   UNL     1      26.891  13.308  -5.748  1.00  0.00     0.006 C
ENDBRANCH   5  18
ENDBRANCH   3   5
BRANCH   1  21
ATOM     21  C   UNL     1      30.584   9.603  -4.030  1.00  0.00     0.085 A
ATOM     22  C   UNL     1      30.415   8.231  -3.885  1.00  0.00     0.100 A
ATOM     23  C   UNL     1      31.886   9.889  -3.533  1.00  0.00     0.120 A
ATOM     24  N   UNL     1      31.546   7.710  -3.297  1.00  0.00    -0.344 N
ATOM     25  N   UNL     1      32.537  11.078  -3.448  1.00  0.00    -0.246 NA
ATOM     26  C   UNL     1      32.435   8.716  -3.040  1.00  0.00     0.156 A
ATOM     27  C   UNL     1      33.709  11.042  -2.764  1.00  0.00     0.066 A
ATOM     28  N   UNL     1      33.615   8.603  -2.400  1.00  0.00    -0.235 NA
ATOM     29  C   UNL     1      34.204   9.827  -2.265  1.00  0.00     0.138 A
ATOM     30  H   UNL     1      31.695   6.746  -3.037  1.00  0.00     0.168 HD
BRANCH  27  31
ATOM     31  C   UNL     1      34.407  12.396  -2.548  1.00  0.00     0.014 C
ATOM     32  C   UNL     1      35.152  12.703  -1.259  1.00  0.00     0.014 C
ATOM     33  C   UNL     1      35.931  12.334  -2.486  1.00  0.00     0.014 C
BRANCH  31  34
ATOM     34  C   UNL     1      33.751  13.518  -3.364  1.00  0.00     0.013 C
BRANCH  34  35
ATOM     35  C   UNL     1      33.130  14.692  -2.600  1.00  0.00     0.001 C
BRANCH  35  36
ATOM     36  C   UNL     1      31.636  14.492  -2.283  1.00  0.00     0.000 C
ATOM     37  G   UNL     1      31.156  15.353  -1.112  1.00  0.00     0.000 C
ENDBRANCH  35  36
ENDBRANCH  34  35
ENDBRANCH  31  34
ENDBRANCH  27  31
ENDBRANCH   1  21
TORSDOF 1
ENDMDL
MODEL 2
REMARK VINA RESULT:      -8.0      1.066      1.924
REMARK SMILES N#C[C@]12CCCCCC[C@]3(CC3)c3cnc4[nH]cc(c4n3)C(=O)N[C@H](C3CC3)C(=O)N(C1)C2
REMARK SMILES IDX 22 1 23 2 24 3 25 5 29 6 30 7 31 8 1 9 2 10 3 11 32 12 33 13
REMARK SMILES IDX 4 14 5 15 6 16 26 18 27 19 28 20 19 21 18 22 20 23 17 24
REMARK SMILES IDX 21 25 16 26 13 27 15 28 14 29 10 31 11 32 12 33 9 34 8 35
REMARK SMILES IDX 7 36
REMARK H PARENT 24 4 17 30
REMARK Flexibility Score:   84.900
ROOT
ATOM      1  C   UNL     1      29.714  11.118  -4.610  1.00  0.00     0.255 C
ATOM      2  O   UNL     1      28.495  11.075  -4.484  1.00  0.00    -0.269 OA
ATOM      3  N   UNL     1      30.378  12.181  -5.168  1.00  0.00    -0.340 N
ATOM      4  H   UNL     1      31.395  12.123  -5.177  1.00  0.00     0.164 HD
ENDROOT
BRANCH   3   5
ATOM      5  C   UNL     1      29.813  13.516  -5.275  1.00  0.00     0.175 C
BRANCH   5   6
ATOM      6  C   UNL     1      31.017  14.446  -5.587  1.00  0.00     0.245 C
ATOM      7  O   UNL     1      32.007  14.046  -6.215  1.00  0.00    -0.272 OA
BRANCH   6   8
ATOM      8  N   UNL     1      30.992  15.738  -5.161  1.00  0.00    -0.338 N
ATOM      9  N   UNL     1      31.291  19.941  -4.042  1.00  0.00    -0.198 NA
ATOM     10  C   UNL     1      31.014  18.970  -4.616  1.00  0.00     0.073 C
ATOM     11  C   UNL     1      30.659  17.757  -5.328  1.00  0.00     0.092 C
ATOM     12  C   UNL     1      31.885  16.817  -5.551  1.00  0.00     0.143 C
ATOM     13  C   UNL     1      30.129  16.610  -4.396  1.00  0.00     0.143 C
BRANCH  11  14
ATOM     14  C   UNL     1      29.680  18.058  -6.493  1.00  0.00     0.026 C
BRANCH  14  15
ATOM     15  C   UNL     1      28.783  19.285  -6.266  1.00  0.00     0.002 C
BRANCH  15  16
ATOM     16  C   UNL     1      27.338  18.991  -6.691  1.00  0.00     0.000 C
ATOM     17  G   UNL     1      26.759  17.729  -6.046  1.00  0.00     0.000 C
ENDBRANCH  15  16
ENDBRANCH  14  15
ENDBRANCH  11  14
ENDBRANCH   6   8
ENDBRANCH   5   6
BRANCH   5  18
ATOM     18  C   UNL     1      28.779  13.463  -6.375  1.00  0.00     0.021 C
ATOM     19  C   UNL     1      28.260  14.727  -7.024  1.00  0.00     0.006 C
ATOM     20  C   UNL     1      27.370  13.950  -6.103  1.00  0.00     0.006 C
ENDBRANCH   5  18
ENDBRANCH   3   5
BRANCH   1  21
ATOM     21  C   UNL     1      30.600  10.060  -4.136  1.00  0.00     0.085 A
ATOM     22  C   UNL     1      30.295   8.708  -4.042  1.00  0.00     0.100 A
ATOM     23  C   UNL     1      31.908  10.204  -3.597  1.00  0.00     0.120 A
ATOM     24  N   UNL     1      31.354   8.061  -3.444  1.00  0.00    -0.344 N
ATOM     25  N   UNL     1      32.667  11.321  -3.454  1.00  0.00    -0.246 NA
ATOM     26  C   UNL     1      32.327   8.969  -3.130  1.00  0.00     0.156 A
ATOM     27  C   UNL     1      33.810  11.150  -2.742  1.00  0.00     0.066 A
ATOM     28  N   UNL     1      33.472   8.721  -2.464  1.00  0.00    -0.235 NA
ATOM     29  C   UNL     1      34.171   9.878  -2.272  1.00  0.00     0.138 A
ATOM     30  H   UNL     1      31.402   7.080  -3.213  1.00  0.00     0.168 HD
BRANCH  27  31
ATOM     31  C   UNL     1      34.628  12.423  -2.462  1.00  0.00     0.014 C
ATOM     32  C   UNL     1      35.428  12.580  -1.179  1.00  0.00     0.014 C
ATOM     33  C   UNL     1      36.142  12.227  -2.449  1.00  0.00     0.014 C
BRANCH  31  34
ATOM     34  C   UNL     1      34.053  13.647  -3.187  1.00  0.00     0.013 C
BRANCH  34  35
ATOM     35  C   UNL     1      33.322  14.700  -2.347  1.00  0.00     0.001 C
BRANCH  35  36
ATOM     36  C   UNL     1      31.856  14.332  -2.049  1.00  0.00     0.000 C
ATOM     37  G   UNL     1      31.162  15.347  -1.137  1.00  0.00     0.000 C
ENDBRANCH  35  36
ENDBRANCH  34  35
ENDBRANCH  31  34
ENDBRANCH  27  31
ENDBRANCH   1  21
TORSDOF 1
ENDMDL
MODEL 3
REMARK VINA RESULT:      -7.9      1.719      3.052
REMARK SMILES N#C[C@]12CCCCCC[C@]3(CC3)c3cnc4[nH]cc(c4n3)C(=O)N[C@H](C3CC3)C(=O)N(C1)C2
REMARK SMILES IDX 22 1 23 2 24 3 25 5 29 6 30 7 31 8 1 9 2 10 3 11 32 12 33 13
REMARK SMILES IDX 4 14 5 15 6 16 26 18 27 19 28 20 19 21 18 22 20 23 17 24
REMARK SMILES IDX 21 25 16 26 13 27 15 28 14 29 10 31 11 32 12 33 9 34 8 35
REMARK SMILES IDX 7 36
REMARK H PARENT 24 4 17 30
REMARK Flexibility Score:   84.900
ROOT
ATOM      1  C   UNL     1      27.935  12.970  -5.564  1.00  0.00     0.255 C
ATOM      2  O   UNL     1      26.839  13.289  -5.116  1.00  0.00    -0.269 OA
ATOM      3  N   UNL     1      28.722  13.813  -6.306  1.00  0.00    -0.340 N
ATOM      4  H   UNL     1      29.633  13.452  -6.584  1.00  0.00     0.164 HD
ENDROOT
BRANCH   3   5
ATOM      5  C   UNL     1      28.585  15.259  -6.294  1.00  0.00     0.175 C
BRANCH   5   6
ATOM      6  C   UNL     1      30.013  15.802  -6.005  1.00  0.00     0.245 C
ATOM      7  O   UNL     1      31.026  15.126  -6.224  1.00  0.00    -0.272 OA
BRANCH   6   8
ATOM      8  N   UNL     1      30.160  17.056  -5.497  1.00  0.00    -0.338 N
ATOM      9  N   UNL     1      30.953  20.895  -3.590  1.00  0.00    -0.198 NA
ATOM     10  C   UNL     1      31.010  19.996  -4.322  1.00  0.00     0.073 C
ATOM     11  C   UNL     1      31.074  18.877  -5.243  1.00  0.00     0.092 C
ATOM     12  C   UNL     1      31.127  17.502  -4.506  1.00  0.00     0.143 C
ATOM     13  C   UNL     1      29.668  18.393  -5.747  1.00  0.00     0.143 C
BRANCH  11  14
ATOM     14  C   UNL     1      32.042  19.174  -6.418  1.00  0.00     0.026 C
BRANCH  14  15
ATOM     15  C   UNL     1      33.496  19.433  -5.991  1.00  0.00     0.002 C
BRANCH  15  16
ATOM     16  C   UNL     1      34.377  18.211  -6.285  1.00  0.00     0.000 C
ATOM     17  G   UNL     1      33.742  17.225  -7.269  1.00  0.00     0.000 C
ENDBRANCH  15  16
ENDBRANCH  14  15
ENDBRANCH  11  14
ENDBRANCH   6   8
ENDBRANCH   5   6
BRANCH   5  18
ATOM     18  C   UNL     1      28.042  15.657  -7.646  1.00  0.00     0.021 C
ATOM     19  C   UNL     1      27.218  16.913  -7.821  1.00  0.00     0.006 C
ATOM     20  C   UNL     1      26.552  15.574  -7.909  1.00  0.00     0.006 C
ENDBRANCH   5  18
ENDBRANCH   3   5
BRANCH   1  21
ATOM     21  C   UNL     1      28.546  11.669  -5.315  1.00  0.00     0.085 A
ATOM     22  C   UNL     1      27.939  10.428  -5.466  1.00  0.00     0.100 A
ATOM     23  C   UNL     1      29.841  11.407  -4.789  1.00  0.00     0.120 A
ATOM     24  N   UNL     1      28.809   9.458  -5.023  1.00  0.00    -0.344 N
ATOM     25  N   UNL     1      30.833  12.275  -4.460  1.00  0.00    -0.246 NA
ATOM     26  C   UNL     1      29.958  10.044  -4.569  1.00  0.00     0.156 A
ATOM     27  C   UNL     1      31.892  11.719  -3.819  1.00  0.00     0.066 A
ATOM     28  N   UNL     1      31.003   9.423  -3.988  1.00  0.00    -0.235 NA
ATOM     29  C   UNL     1      31.943  10.333  -3.601  1.00  0.00     0.138 A
ATOM     30  H   UNL     1      28.627   8.466  -4.979  1.00  0.00     0.168 HD
BRANCH  27  31
ATOM     31  C   UNL     1      32.974  12.696  -3.327  1.00  0.00     0.014 C
ATOM     32  C   UNL     1      32.978  14.152  -3.765  1.00  0.00     0.014 C
ATOM     33  C   UNL     1      32.472  13.799  -2.398  1.00  0.00     0.014 C
BRANCH  31  34
ATOM     34  C   UNL     1      34.282  11.977  -2.973  1.00  0.00     0.013 C
BRANCH  34  35
ATOM     35  C   UNL     1      35.407  12.804  -2.341  1.00  0.00     0.001 C
BRANCH  35  36
ATOM     36  C   UNL     1      35.766  12.355  -0.912  1.00  0.00     0.000 C
ATOM     37  G   UNL     1      35.968  10.842  -0.798  1.00  0.00     0.000 C
ENDBRANCH  35  36
ENDBRANCH  34  35
ENDBRANCH  31  34
ENDBRANCH  27  31
ENDBRANCH   1  21
TORSDOF 1
ENDMDL
MODEL 4
REMARK VINA RESULT:      -7.8      0.839      1.050
REMARK SMILES N#C[C@]12CCCCCC[C@]3(CC3)c3cnc4[nH]cc(c4n3)C(=O)N[C@H](C3CC3)C(=O)N(C1)C2
REMARK SMILES IDX 22 1 23 2 24 3 25 5 29 6 30 7 31 8 1 9 2 10 3 11 32 12 33 13
REMARK SMILES IDX 4 14 5 15 6 16 26 18 27 19 28 20 19 21 18 22 20 23 17 24
REMARK SMILES IDX 21 25 16 26 13 27 15 28 14 29 10 31 11 32 12 33 9 34 8 35
REMARK SMILES IDX 7 36
REMARK H PARENT 24 4 17 30
REMARK Flexibility Score:   84.900
ROOT
ATOM      1  C   UNL     1      28.993  10.960  -4.916  1.00  0.00     0.255 C
ATOM      2  O   UNL     1      27.803  10.918  -4.619  1.00  0.00    -0.269 OA
ATOM      3  N   UNL     1      29.570  12.015  -5.574  1.00  0.00    -0.340 N
ATOM      4  H   UNL     1      30.575  11.958  -5.725  1.00  0.00     0.164 HD
ENDROOT
BRANCH   3   5
ATOM      5  C   UNL     1      28.993  13.349  -5.617  1.00  0.00     0.175 C
BRANCH   5   6
ATOM      6  C   UNL     1      30.194  14.306  -5.853  1.00  0.00     0.245 C
ATOM      7  O   UNL     1      31.339  13.882  -6.054  1.00  0.00    -0.272 OA
BRANCH   6   8
ATOM      8  N   UNL     1      29.989  15.652  -5.837  1.00  0.00    -0.338 N
ATOM      9  N   UNL     1      29.075  19.893  -5.414  1.00  0.00    -0.198 NA
ATOM     10  C   UNL     1      29.600  18.864  -5.310  1.00  0.00     0.073 C
ATOM     11  C   UNL     1      30.264  17.579  -5.186  1.00  0.00     0.092 C
ATOM     12  C   UNL     1      29.270  16.427  -4.839  1.00  0.00     0.143 C
ATOM     13  C   UNL     1      30.440  16.825  -6.552  1.00  0.00     0.143 C
BRANCH  11  14
ATOM     14  C   UNL     1      31.606  17.713  -4.419  1.00  0.00     0.026 C
BRANCH  14  15
ATOM     15  C   UNL     1      32.674  18.539  -5.153  1.00  0.00     0.002 C
BRANCH  15  16
ATOM     16  C   UNL     1      33.848  17.651  -5.587  1.00  0.00     0.000 C
ATOM     17  G   UNL     1      34.399  18.004  -6.971  1.00  0.00     0.000 C
ENDBRANCH  15  16
ENDBRANCH  14  15
ENDBRANCH  11  14
ENDBRANCH   6   8
ENDBRANCH   5   6
BRANCH   5  18
ATOM     18  C   UNL     1      27.981  13.350  -6.738  1.00  0.00     0.021 C
ATOM     19  C   UNL     1      27.152  14.577  -7.045  1.00  0.00     0.006 C
ATOM     20  C   UNL     1      26.502  13.385  -6.414  1.00  0.00     0.006 C
ENDBRANCH   5  18
ENDBRANCH   3   5
BRANCH   1  21
ATOM     21  C   UNL     1      29.937   9.908  -4.558  1.00  0.00     0.085 A
ATOM     22  C   UNL     1      29.695   8.540  -4.572  1.00  0.00     0.100 A
ATOM     23  C   UNL     1      31.254  10.065  -4.044  1.00  0.00     0.120 A
ATOM     24  N   UNL     1      30.798   7.894  -4.060  1.00  0.00    -0.344 N
ATOM     25  N   UNL     1      31.968  11.200  -3.827  1.00  0.00    -0.246 NA
ATOM     26  C   UNL     1      31.741   8.816  -3.695  1.00  0.00     0.156 A
ATOM     27  C   UNL     1      33.139  11.023  -3.163  1.00  0.00     0.066 A
ATOM     28  N   UNL     1      32.916   8.566  -3.085  1.00  0.00    -0.235 NA
ATOM     29  C   UNL     1      33.569   9.734  -2.814  1.00  0.00     0.138 A
ATOM     30  H   UNL     1      30.896   6.900  -3.915  1.00  0.00     0.168 HD
BRANCH  27  31
ATOM     31  C   UNL     1      33.909  12.304  -2.798  1.00  0.00     0.014 C
ATOM     32  C   UNL     1      34.572  12.465  -1.439  1.00  0.00     0.014 C
ATOM     33  C   UNL     1      35.416  12.125  -2.631  1.00  0.00     0.014 C
BRANCH  31  34
ATOM     34  C   UNL     1      33.396  13.524  -3.574  1.00  0.00     0.013 C
BRANCH  34  35
ATOM     35  C   UNL     1      32.866  14.715  -2.767  1.00  0.00     0.001 C
BRANCH  35  36
ATOM     36  C   UNL     1      31.388  14.566  -2.359  1.00  0.00     0.000 C
ATOM     37  G   UNL     1      30.925  15.660  -1.394  1.00  0.00     0.000 C
ENDBRANCH  35  36
ENDBRANCH  34  35
ENDBRANCH  31  34
ENDBRANCH  27  31
ENDBRANCH   1  21
TORSDOF 1
ENDMDL
MODEL 5
REMARK VINA RESULT:      -7.7      2.599      8.215
REMARK SMILES N#C[C@]12CCCCCC[C@]3(CC3)c3cnc4[nH]cc(c4n3)C(=O)N[C@H](C3CC3)C(=O)N(C1)C2
REMARK SMILES IDX 22 1 23 2 24 3 25 5 29 6 30 7 31 8 1 9 2 10 3 11 32 12 33 13
REMARK SMILES IDX 4 14 5 15 6 16 26 18 27 19 28 20 19 21 18 22 20 23 17 24
REMARK SMILES IDX 21 25 16 26 13 27 15 28 14 29 10 31 11 32 12 33 9 34 8 35
REMARK SMILES IDX 7 36
REMARK H PARENT 24 4 17 30
REMARK Flexibility Score:   84.900
ROOT
ATOM      1  C   UNL     1      28.418  16.298  -6.675  1.00  0.00     0.255 C
ATOM      2  O   UNL     1      28.464  15.399  -7.507  1.00  0.00    -0.269 OA
ATOM      3  N   UNL     1      28.793  16.135  -5.366  1.00  0.00    -0.340 N
ATOM      4  H   UNL     1      28.755  16.966  -4.779  1.00  0.00     0.164 HD
ENDROOT
BRANCH   3   5
ATOM      5  C   UNL     1      29.668  15.069  -4.908  1.00  0.00     0.175 C
BRANCH   5   6
ATOM      6  C   UNL     1      30.543  15.708  -3.794  1.00  0.00     0.245 C
ATOM      7  O   UNL     1      30.155  16.681  -3.134  1.00  0.00    -0.272 OA
BRANCH   6   8
ATOM      8  N   UNL     1      31.775  15.191  -3.533  1.00  0.00    -0.338 N
ATOM      9  N   UNL     1      35.547  13.390  -2.297  1.00  0.00    -0.198 NA
ATOM     10  C   UNL     1      34.495  13.531  -2.766  1.00  0.00     0.073 C
ATOM     11  C   UNL     1      33.184  13.708  -3.362  1.00  0.00     0.092 C
ATOM     12  C   UNL     1      32.175  14.392  -2.386  1.00  0.00     0.143 C
ATOM     13  C   UNL     1      33.046  15.027  -4.203  1.00  0.00     0.143 C
BRANCH  11  14
ATOM     14  C   UNL     1      32.763  12.455  -4.173  1.00  0.00     0.026 C
BRANCH  14  15
ATOM     15  C   UNL     1      32.472  11.214  -3.315  1.00  0.00     0.002 C
BRANCH  15  16
ATOM     16  C   UNL     1      33.745  10.383  -3.106  1.00  0.00     0.000 C
ATOM     17  G   UNL     1      33.545   9.184  -2.176  1.00  0.00     0.000 C
ENDBRANCH  15  16
ENDBRANCH  14  15
ENDBRANCH  11  14
ENDBRANCH   6   8
ENDBRANCH   5   6
BRANCH   5  18
ATOM     18  C   UNL     1      28.775  13.953  -4.418  1.00  0.00     0.021 C
ATOM     19  C   UNL     1      29.342  12.603  -4.040  1.00  0.00     0.006 C
ATOM     20  C   UNL     1      28.538  12.742  -5.296  1.00  0.00     0.006 C
ENDBRANCH   5  18
ENDBRANCH   3   5
BRANCH   1  21
ATOM     21  C   UNL     1      28.000  17.658  -6.998  1.00  0.00     0.085 A
ATOM     22  C   UNL     1      26.947  18.024  -7.825  1.00  0.00     0.100 A
ATOM     23  C   UNL     1      28.631  18.872  -6.609  1.00  0.00     0.120 A
ATOM     24  N   UNL     1      26.953  19.394  -7.962  1.00  0.00    -0.344 N
ATOM     25  N   UNL     1      29.709  19.068  -5.806  1.00  0.00    -0.246 NA
ATOM     26  C   UNL     1      28.001  19.921  -7.258  1.00  0.00     0.156 A
ATOM     27  C   UNL     1      30.172  20.344  -5.769  1.00  0.00     0.066 A
ATOM     28  N   UNL     1      28.375  21.215  -7.220  1.00  0.00    -0.235 NA
ATOM     29  C   UNL     1      29.505  21.362  -6.468  1.00  0.00     0.138 A
ATOM     30  H   UNL     1      26.326  19.942  -8.533  1.00  0.00     0.168 HD
BRANCH  27  31
ATOM     31  C   UNL     1      31.463  20.571  -4.964  1.00  0.00     0.014 C
ATOM     32  C   UNL     1      31.902  21.968  -4.556  1.00  0.00     0.014 C
ATOM     33  C   UNL     1      31.254  21.077  -3.539  1.00  0.00     0.014 C
BRANCH  31  34
ATOM     34  C   UNL     1      32.494  19.460  -5.205  1.00  0.00     0.013 C
BRANCH  34  35
ATOM     35  C   UNL     1      33.370  19.555  -6.459  1.00  0.00     0.001 C
BRANCH  35  36
ATOM     36  C   UNL     1      34.288  18.333  -6.655  1.00  0.00     0.000 C
ATOM     37  G   UNL     1      33.555  17.131  -7.254  1.00  0.00     0.000 C
ENDBRANCH  35  36
ENDBRANCH  34  35
ENDBRANCH  31  34
ENDBRANCH  27  31
ENDBRANCH   1  21
TORSDOF 1
ENDMDL
MODEL 6
REMARK VINA RESULT:      -7.7      2.487      8.913
REMARK SMILES N#C[C@]12CCCCCC[C@]3(CC3)c3cnc4[nH]cc(c4n3)C(=O)N[C@H](C3CC3)C(=O)N(C1)C2
REMARK SMILES IDX 22 1 23 2 24 3 25 5 29 6 30 7 31 8 1 9 2 10 3 11 32 12 33 13
REMARK SMILES IDX 4 14 5 15 6 16 26 18 27 19 28 20 19 21 18 22 20 23 17 24
REMARK SMILES IDX 21 25 16 26 13 27 15 28 14 29 10 31 11 32 12 33 9 34 8 35
REMARK SMILES IDX 7 36
REMARK H PARENT 24 4 17 30
REMARK Flexibility Score:   84.900
ROOT
ATOM      1  C   UNL     1      32.029  17.295  -6.085  1.00  0.00     0.255 C
ATOM      2  O   UNL     1      33.173  16.980  -6.396  1.00  0.00    -0.269 OA
ATOM      3  N   UNL     1      31.093  16.397  -5.639  1.00  0.00    -0.340 N
ATOM      4  H   UNL     1      30.191  16.783  -5.367  1.00  0.00     0.164 HD
ENDROOT
BRANCH   3   5
ATOM      5  C   UNL     1      31.428  15.100  -5.077  1.00  0.00     0.175 C
BRANCH   5   6
ATOM      6  C   UNL     1      31.894  15.392  -3.623  1.00  0.00     0.245 C
ATOM      7  O   UNL     1      31.380  16.287  -2.939  1.00  0.00    -0.272 OA
BRANCH   6   8
ATOM      8  N   UNL     1      32.897  14.649  -3.080  1.00  0.00    -0.338 N
ATOM      9  N   UNL     1      35.820  12.177  -0.996  1.00  0.00    -0.198 NA
ATOM     10  C   UNL     1      34.960  12.507  -1.701  1.00  0.00     0.073 C
ATOM     11  C   UNL     1      33.889  12.920  -2.590  1.00  0.00     0.092 C
ATOM     12  C   UNL     1      32.844  13.834  -1.877  1.00  0.00     0.143 C
ATOM     13  C   UNL     1      34.227  14.203  -3.430  1.00  0.00     0.143 C
BRANCH  11  14
ATOM     14  C   UNL     1      33.420  11.744  -3.486  1.00  0.00     0.026 C
BRANCH  14  15
ATOM     15  C   UNL     1      33.928  10.365  -3.038  1.00  0.00     0.002 C
BRANCH  15  16
ATOM     16  C   UNL     1      32.800   9.555  -2.384  1.00  0.00     0.000 C
ATOM     17  G   UNL     1      31.801   8.980  -3.391  1.00  0.00     0.000 C
ENDBRANCH  15  16
ENDBRANCH  14  15
ENDBRANCH  11  14
ENDBRANCH   6   8
ENDBRANCH   5   6
BRANCH   5  18
ATOM     18  C   UNL     1      30.179  14.254  -5.160  1.00  0.00     0.021 C
ATOM     19  C   UNL     1      29.685  13.465  -3.967  1.00  0.00     0.006 C
ATOM     20  C   UNL     1      30.293  12.744  -5.130  1.00  0.00     0.006 C
ENDBRANCH   5  18
ENDBRANCH   3   5
BRANCH   1  21
ATOM     21  C   UNL     1      31.550  18.672  -6.112  1.00  0.00     0.085 A
ATOM     22  C   UNL     1      32.280  19.808  -5.782  1.00  0.00     0.100 A
ATOM     23  C   UNL     1      30.231  19.125  -6.392  1.00  0.00     0.120 A
ATOM     24  N   UNL     1      31.439  20.897  -5.826  1.00  0.00    -0.344 N
ATOM     25  N   UNL     1      29.133  18.415  -6.761  1.00  0.00    -0.246 NA
ATOM     26  C   UNL     1      30.176  20.489  -6.157  1.00  0.00     0.156 A
ATOM     27  C   UNL     1      27.975  19.123  -6.787  1.00  0.00     0.066 A
ATOM     28  N   UNL     1      29.072  21.259  -6.218  1.00  0.00    -0.235 NA
ATOM     29  C   UNL     1      27.978  20.500  -6.515  1.00  0.00     0.138 A
ATOM     30  H   UNL     1      31.682  21.850  -5.600  1.00  0.00     0.168 HD
BRANCH  27  31
ATOM     31  C   UNL     1      26.698  18.318  -7.084  1.00  0.00     0.014 C
ATOM     32  C   UNL     1      25.324  18.965  -7.016  1.00  0.00     0.014 C
ATOM     33  C   UNL     1      25.958  18.727  -8.354  1.00  0.00     0.014 C
BRANCH  31  34
ATOM     34  C   UNL     1      26.879  16.823  -6.789  1.00  0.00     0.013 C
BRANCH  34  35
ATOM     35  C   UNL     1      26.950  16.384  -5.322  1.00  0.00     0.001 C
BRANCH  35  36
ATOM     36  C   UNL     1      25.990  15.229  -4.983  1.00  0.00     0.000 C
ATOM     37  G   UNL     1      26.410  13.901  -5.620  1.00  0.00     0.000 C
ENDBRANCH  35  36
ENDBRANCH  34  35
ENDBRANCH  31  34
ENDBRANCH  27  31
ENDBRANCH   1  21
TORSDOF 1
ENDMDL
MODEL 7
REMARK VINA RESULT:      -7.6      1.789      3.398
REMARK SMILES N#C[C@]12CCCCCC[C@]3(CC3)c3cnc4[nH]cc(c4n3)C(=O)N[C@H](C3CC3)C(=O)N(C1)C2
REMARK SMILES IDX 22 1 23 2 24 3 25 5 29 6 30 7 31 8 1 9 2 10 3 11 32 12 33 13
REMARK SMILES IDX 4 14 5 15 6 16 26 18 27 19 28 20 19 21 18 22 20 23 17 24
REMARK SMILES IDX 21 25 16 26 13 27 15 28 14 29 10 31 11 32 12 33 9 34 8 35
REMARK SMILES IDX 7 36
REMARK H PARENT 24 4 17 30
REMARK Flexibility Score:   84.900
ROOT
ATOM      1  C   UNL     1      29.687  12.963  -4.712  1.00  0.00     0.255 C
ATOM      2  O   UNL     1      28.728  13.658  -4.393  1.00  0.00    -0.269 OA
ATOM      3  N   UNL     1      30.941  13.466  -4.943  1.00  0.00    -0.340 N
ATOM      4  H   UNL     1      31.668  12.786  -5.156  1.00  0.00     0.164 HD
ENDROOT
BRANCH   3   5
ATOM      5  C   UNL     1      31.396  14.751  -4.439  1.00  0.00     0.175 C
BRANCH   5   6
ATOM      6  C   UNL     1      31.185  15.748  -5.612  1.00  0.00     0.245 C
ATOM      7  O   UNL     1      30.249  15.628  -6.413  1.00  0.00    -0.272 OA
BRANCH   6   8
ATOM      8  N   UNL     1      32.051  16.786  -5.771  1.00  0.00    -0.338 N
ATOM      9  N   UNL     1      34.596  20.211  -6.663  1.00  0.00    -0.198 NA
ATOM     10  C   UNL     1      33.728  19.562  -6.247  1.00  0.00     0.073 C
ATOM     11  C   UNL     1      32.648  18.750  -5.718  1.00  0.00     0.092 C
ATOM     12  C   UNL     1      32.025  17.813  -6.800  1.00  0.00     0.143 C
ATOM     13  C   UNL     1      33.133  17.416  -5.046  1.00  0.00     0.143 C
BRANCH  11  14
ATOM     14  C   UNL     1      31.735  19.577  -4.777  1.00  0.00     0.026 C
BRANCH  14  15
ATOM     15  C   UNL     1      31.744  21.089  -5.052  1.00  0.00     0.002 C
BRANCH  15  16
ATOM     16  C   UNL     1      30.548  21.492  -5.924  1.00  0.00     0.000 C
ATOM     17  G   UNL     1      29.561  20.348  -6.172  1.00  0.00     0.000 C
ENDBRANCH  15  16
ENDBRANCH  14  15
ENDBRANCH  11  14
ENDBRANCH   6   8
ENDBRANCH   5   6
BRANCH   5  18
ATOM     18  C   UNL     1      30.563  15.059  -3.217  1.00  0.00     0.021 C
ATOM     19  C   UNL     1      30.754  16.344  -2.442  1.00  0.00     0.006 C
ATOM     20  C   UNL     1      31.209  15.048  -1.847  1.00  0.00     0.006 C
ENDBRANCH   5  18
ENDBRANCH   3   5
BRANCH   1  21
ATOM     21  C   UNL     1      29.608  11.511  -4.836  1.00  0.00     0.085 A
ATOM     22  C   UNL     1      28.541  10.782  -5.346  1.00  0.00     0.100 A
ATOM     23  C   UNL     1      30.556  10.552  -4.385  1.00  0.00     0.120 A
ATOM     24  N   UNL     1      28.811   9.441  -5.184  1.00  0.00    -0.344 N
ATOM     25  N   UNL     1      31.770  10.741  -3.804  1.00  0.00    -0.246 NA
ATOM     26  C   UNL     1      30.019   9.287  -4.562  1.00  0.00     0.156 A
ATOM     27  C   UNL     1      32.361   9.615  -3.332  1.00  0.00     0.066 A
ATOM     28  N   UNL     1      30.577   8.127  -4.166  1.00  0.00    -0.235 NA
ATOM     29  C   UNL     1      31.756   8.362  -3.519  1.00  0.00     0.138 A
ATOM     30  H   UNL     1      28.201   8.675  -5.430  1.00  0.00     0.168 HD
BRANCH  27  31
ATOM     31  C   UNL     1      33.679   9.815  -2.563  1.00  0.00     0.014 C
ATOM     32  C   UNL     1      33.860   9.272  -1.154  1.00  0.00     0.014 C
ATOM     33  C   UNL     1      34.477   8.539  -2.308  1.00  0.00     0.014 C
BRANCH  31  34
ATOM     34  C   UNL     1      34.429  11.071  -3.025  1.00  0.00     0.013 C
BRANCH  34  35
ATOM     35  C   UNL     1      34.485  12.267  -2.067  1.00  0.00     0.001 C
BRANCH  35  36
ATOM     36  C   UNL     1      34.315  13.624  -2.775  1.00  0.00     0.000 C
ATOM     37  G   UNL     1      35.574  14.492  -2.705  1.00  0.00     0.000 C
ENDBRANCH  35  36
ENDBRANCH  34  35
ENDBRANCH  31  34
ENDBRANCH  27  31
ENDBRANCH   1  21
TORSDOF 1
ENDMDL
MODEL 8
REMARK VINA RESULT:      -7.6      1.580      2.217
REMARK SMILES N#C[C@]12CCCCCC[C@]3(CC3)c3cnc4[nH]cc(c4n3)C(=O)N[C@H](C3CC3)C(=O)N(C1)C2
REMARK SMILES IDX 22 1 23 2 24 3 25 5 29 6 30 7 31 8 1 9 2 10 3 11 32 12 33 13
REMARK SMILES IDX 4 14 5 15 6 16 26 18 27 19 28 20 19 21 18 22 20 23 17 24
REMARK SMILES IDX 21 25 16 26 13 27 15 28 14 29 10 31 11 32 12 33 9 34 8 35
REMARK SMILES IDX 7 36
REMARK H PARENT 24 4 17 30
REMARK Flexibility Score:   84.900
ROOT
ATOM      1  C   UNL     1      29.425  10.880  -4.481  1.00  0.00     0.255 C
ATOM      2  O   UNL     1      28.302  10.390  -4.426  1.00  0.00    -0.269 OA
ATOM      3  N   UNL     1      29.670  12.158  -4.913  1.00  0.00    -0.340 N
ATOM      4  H   UNL     1      30.639  12.471  -4.870  1.00  0.00     0.164 HD
ENDROOT
BRANCH   3   5
ATOM      5  C   UNL     1      28.662  13.205  -4.940  1.00  0.00     0.175 C
BRANCH   5   6
ATOM      6  C   UNL     1      29.324  14.428  -4.246  1.00  0.00     0.245 C
ATOM      7  O   UNL     1      29.788  14.358  -3.101  1.00  0.00    -0.272 OA
BRANCH   6   8
ATOM      8  N   UNL     1      29.397  15.614  -4.910  1.00  0.00    -0.338 N
ATOM      9  N   UNL     1      29.344  19.580  -6.719  1.00  0.00    -0.198 NA
ATOM     10  C   UNL     1      29.642  18.676  -6.055  1.00  0.00     0.073 C
ATOM     11  C   UNL     1      30.022  17.542  -5.232  1.00  0.00     0.092 C
ATOM     12  C   UNL     1      28.796  16.882  -4.527  1.00  0.00     0.143 C
ATOM     13  C   UNL     1      30.116  16.190  -6.024  1.00  0.00     0.143 C
BRANCH  11  14
ATOM     14  C   UNL     1      31.319  17.840  -4.434  1.00  0.00     0.026 C
BRANCH  14  15
ATOM     15  C   UNL     1      32.343  18.702  -5.188  1.00  0.00     0.002 C
BRANCH  15  16
ATOM     16  C   UNL     1      33.527  17.851  -5.666  1.00  0.00     0.000 C
ATOM     17  G   UNL     1      33.527  17.603  -7.177  1.00  0.00     0.000 C
ENDBRANCH  15  16
ENDBRANCH  14  15
ENDBRANCH  11  14
ENDBRANCH   6   8
ENDBRANCH   5   6
BRANCH   5  18
ATOM     18  C   UNL     1      28.318  13.439  -6.393  1.00  0.00     0.021 C
ATOM     19  C   UNL     1      27.097  14.238  -6.790  1.00  0.00     0.006 C
ATOM     20  C   UNL     1      27.108  12.754  -6.995  1.00  0.00     0.006 C
ENDBRANCH   5  18
ENDBRANCH   3   5
BRANCH   1  21
ATOM     21  C   UNL     1      30.623  10.170  -4.048  1.00  0.00     0.085 A
ATOM     22  C   UNL     1      30.743   8.801  -3.840  1.00  0.00     0.100 A
ATOM     23  C   UNL     1      31.873  10.733  -3.667  1.00  0.00     0.120 A
ATOM     24  N   UNL     1      31.995   8.544  -3.327  1.00  0.00    -0.344 N
ATOM     25  N   UNL     1      32.276  12.030  -3.677  1.00  0.00    -0.246 NA
ATOM     26  C   UNL     1      32.680   9.718  -3.178  1.00  0.00     0.156 A
ATOM     27  C   UNL     1      33.478  12.261  -3.088  1.00  0.00     0.066 A
ATOM     28  N   UNL     1      33.902   9.873  -2.631  1.00  0.00    -0.235 NA
ATOM     29  C   UNL     1      34.240  11.195  -2.588  1.00  0.00     0.138 A
ATOM     30  H   UNL     1      32.352   7.643  -3.046  1.00  0.00     0.168 HD
BRANCH  27  31
ATOM     31  C   UNL     1      33.903  13.736  -2.978  1.00  0.00     0.014 C
ATOM     32  C   UNL     1      33.193  14.822  -3.770  1.00  0.00     0.014 C
ATOM     33  C   UNL     1      32.880  14.653  -2.313  1.00  0.00     0.014 C
BRANCH  31  34
ATOM     34  C   UNL     1      35.380  13.881  -2.590  1.00  0.00     0.013 C
BRANCH  34  35
ATOM     35  C   UNL     1      36.022  15.267  -2.716  1.00  0.00     0.001 C
BRANCH  35  36
ATOM     36  C   UNL     1      36.507  15.839  -1.370  1.00  0.00     0.000 C
ATOM     37  G   UNL     1      37.594  16.903  -1.535  1.00  0.00     0.000 C
ENDBRANCH  35  36
ENDBRANCH  34  35
ENDBRANCH  31  34
ENDBRANCH  27  31
ENDBRANCH   1  21
TORSDOF 1
ENDMDL
MODEL 9
REMARK VINA RESULT:      -7.6      2.648      6.998
REMARK SMILES N#C[C@]12CCCCCC[C@]3(CC3)c3cnc4[nH]cc(c4n3)C(=O)N[C@H](C3CC3)C(=O)N(C1)C2
REMARK SMILES IDX 22 1 23 2 24 3 25 5 29 6 30 7 31 8 1 9 2 10 3 11 32 12 33 13
REMARK SMILES IDX 4 14 5 15 6 16 26 18 27 19 28 20 19 21 18 22 20 23 17 24
REMARK SMILES IDX 21 25 16 26 13 27 15 28 14 29 10 31 11 32 12 33 9 34 8 35
REMARK SMILES IDX 7 36
REMARK H PARENT 24 4 17 30
REMARK Flexibility Score:   84.900
ROOT
ATOM      1  C   UNL     1      30.885  14.544  -4.895  1.00  0.00     0.255 C
ATOM      2  O   UNL     1      30.842  15.028  -6.021  1.00  0.00    -0.269 OA
ATOM      3  N   UNL     1      29.832  13.885  -4.315  1.00  0.00    -0.340 N
ATOM      4  H   UNL     1      30.002  13.486  -3.393  1.00  0.00     0.164 HD
ENDROOT
BRANCH   3   5
ATOM      5  C   UNL     1      28.733  13.305  -5.069  1.00  0.00     0.175 C
BRANCH   5   6
ATOM      6  C   UNL     1      28.652  11.826  -4.600  1.00  0.00     0.245 C
ATOM      7  O   UNL     1      29.237  11.428  -3.584  1.00  0.00    -0.272 OA
BRANCH   6   8
ATOM      8  N   UNL     1      27.919  10.935  -5.323  1.00  0.00    -0.338 N
ATOM      9  N   UNL     1      25.601   8.380  -7.988  1.00  0.00    -0.198 NA
ATOM     10  C   UNL     1      26.494   8.864  -7.426  1.00  0.00     0.073 C
ATOM     11  C   UNL     1      27.611   9.461  -6.718  1.00  0.00     0.092 C
ATOM     12  C   UNL     1      27.556  11.021  -6.729  1.00  0.00     0.143 C
ATOM     13  C   UNL     1      27.374   9.605  -5.173  1.00  0.00     0.143 C
BRANCH  11  14
ATOM     14  C   UNL     1      28.936   8.721  -7.036  1.00  0.00     0.026 C
BRANCH  14  15
ATOM     15  C   UNL     1      28.910   7.908  -8.340  1.00  0.00     0.002 C
BRANCH  15  16
ATOM     16  C   UNL     1      29.133   6.416  -8.057  1.00  0.00     0.000 C
ATOM     17  G   UNL     1      27.885   5.560  -8.285  1.00  0.00     0.000 C
ENDBRANCH  15  16
ENDBRANCH  14  15
ENDBRANCH  11  14
ENDBRANCH   6   8
ENDBRANCH   5   6
BRANCH   5  18
ATOM     18  C   UNL     1      27.504  14.119  -4.741  1.00  0.00     0.021 C
ATOM     19  C   UNL     1      26.269  14.061  -5.613  1.00  0.00     0.006 C
ATOM     20  C   UNL     1      27.123  15.291  -5.622  1.00  0.00     0.006 C
ENDBRANCH   5  18
ENDBRANCH   3   5
BRANCH   1  21
ATOM     21  C   UNL     1      32.083  14.578  -4.063  1.00  0.00     0.085 A
ATOM     22  C   UNL     1      32.869  15.691  -3.790  1.00  0.00     0.100 A
ATOM     23  C   UNL     1      32.736  13.478  -3.440  1.00  0.00     0.120 A
ATOM     24  N   UNL     1      33.966  15.285  -3.063  1.00  0.00    -0.344 N
ATOM     25  N   UNL     1      32.380  12.167  -3.408  1.00  0.00    -0.246 NA
ATOM     26  C   UNL     1      33.918  13.931  -2.878  1.00  0.00     0.156 A
ATOM     27  C   UNL     1      33.309  11.335  -2.872  1.00  0.00     0.066 A
ATOM     28  N   UNL     1      34.856  13.166  -2.285  1.00  0.00    -0.235 NA
ATOM     29  C   UNL     1      34.502  11.849  -2.340  1.00  0.00     0.138 A
ATOM     30  H   UNL     1      34.727  15.870  -2.753  1.00  0.00     0.168 HD
BRANCH  27  31
ATOM     31  C   UNL     1      32.985   9.832  -2.933  1.00  0.00     0.014 C
ATOM     32  C   UNL     1      33.978   8.790  -2.443  1.00  0.00     0.014 C
ATOM     33  C   UNL     1      32.810   9.155  -1.576  1.00  0.00     0.014 C
BRANCH  31  34
ATOM     34  C   UNL     1      31.986   9.504  -4.051  1.00  0.00     0.013 C
BRANCH  34  35
ATOM     35  C   UNL     1      30.832   8.549  -3.724  1.00  0.00     0.001 C
BRANCH  35  36
ATOM     36  C   UNL     1      31.121   7.087  -4.113  1.00  0.00     0.000 C
ATOM     37  G   UNL     1      29.885   6.359  -4.646  1.00  0.00     0.000 C
ENDBRANCH  35  36
ENDBRANCH  34  35
ENDBRANCH  31  34
ENDBRANCH  27  31
ENDBRANCH   1  21
TORSDOF 1
ENDMDL
