MODEL 1
REMARK VINA RESULT:     -10.5      0.000      0.000
REMARK SMILES Fc1cc2cc(F)c1CN1CCO[C@@H](COCC3(CCNCC3)n3cc(cn3)-c3cnc4cccc-2c4n3)C1
REMARK SMILES IDX 1 1 2 2 3 3 4 4 5 5 6 6 7 7 8 8 9 9 10 10 11 11 39 12 12 13
REMARK SMILES IDX 14 14 13 15 15 16 16 17 17 18 36 20 35 21 37 22 34 23 38 24
REMARK SMILES IDX 32 25 33 26 29 27 31 28 30 29 26 30 25 31 27 32 24 33 28 34
REMARK SMILES IDX 18 35 19 36 23 37 20 38 22 39 21 40
REMARK H PARENT 21 41
REMARK Flexibility Score:   78.900
ROOT
ATOM      1  F   UNL     1      31.924  14.890  -6.356  1.00  0.00    -0.207 F
ATOM      2  C   UNL     1      32.035  14.762  -5.025  1.00  0.00     0.131 A
ATOM      3  C   UNL     1      32.909  13.800  -4.522  1.00  0.00     0.048 A
ATOM      4  C   UNL     1      33.026  13.581  -3.140  1.00  0.00    -0.010 A
ATOM      5  C   UNL     1      32.289  14.416  -2.287  1.00  0.00     0.048 A
ATOM      6  C   UNL     1      31.430  15.390  -2.808  1.00  0.00     0.131 A
ATOM      7  F   UNL     1      30.746  16.159  -1.949  1.00  0.00    -0.207 F
ATOM      8  C   UNL     1      31.266  15.561  -4.182  1.00  0.00     0.038 A
ENDROOT
BRANCH   8   9
ATOM      9  C   UNL     1      30.302  16.566  -4.755  1.00  0.00     0.126 C
BRANCH   9  10
ATOM     10  N   UNL     1      28.894  16.361  -4.371  1.00  0.00    -0.294 NA
ATOM     11  C   UNL     1      28.088  17.575  -4.637  1.00  0.00     0.113 C
ATOM     12  C   UNL     1      28.279  15.179  -5.026  1.00  0.00     0.119 C
ATOM     13  C   UNL     1      27.263  17.488  -5.933  1.00  0.00     0.176 C
ATOM     14  C   UNL     1      26.740  15.303  -5.085  1.00  0.00     0.158 C
ATOM     15  O   UNL     1      26.342  16.388  -5.950  1.00  0.00    -0.373 OA
BRANCH  14  16
ATOM     16  C   UNL     1      26.033  14.013  -5.542  1.00  0.00     0.193 C
BRANCH  16  17
ATOM     17  O   UNL     1      24.733  14.251  -6.101  1.00  0.00    -0.376 OA
BRANCH  17  18
ATOM     18  C   UNL     1      24.589  13.679  -7.406  1.00  0.00     0.191 C
ATOM     19  G   UNL     1      25.944  13.171  -7.974  1.00  0.00     0.000 C
ENDBRANCH  17  18
ENDBRANCH  16  17
ENDBRANCH  14  16
ENDBRANCH   9  10
ENDBRANCH   8   9
BRANCH   4  20
ATOM     20  C   UNL     1      33.831  12.452  -2.617  1.00  0.00     0.010 A
ATOM     21  C   UNL     1      35.042  12.687  -1.947  1.00  0.00     0.011 A
ATOM     22  C   UNL     1      33.379  11.126  -2.775  1.00  0.00     0.097 A
ATOM     23  C   UNL     1      35.791  11.623  -1.452  1.00  0.00     0.003 A
ATOM     24  N   UNL     1      32.213  10.887  -3.402  1.00  0.00    -0.244 NA
ATOM     25  C   UNL     1      34.137  10.044  -2.268  1.00  0.00     0.089 A
ATOM     26  C   UNL     1      35.332  10.316  -1.616  1.00  0.00     0.030 A
ATOM     27  C   UNL     1      31.790   9.612  -3.544  1.00  0.00     0.092 A
ATOM     28  N   UNL     1      33.720   8.764  -2.404  1.00  0.00    -0.252 NA
ATOM     29  C   UNL     1      32.538   8.567  -3.045  1.00  0.00     0.140 A
BRANCH  27  30
ATOM     30  C   UNL     1      30.516   9.471  -4.214  1.00  0.00     0.040 A
ATOM     31  C   UNL     1      30.106   8.282  -4.777  1.00  0.00     0.119 A
ATOM     32  C   UNL     1      29.475  10.365  -4.532  1.00  0.00     0.145 A
ATOM     33  N   UNL     1      28.929   8.523  -5.433  1.00  0.00    -0.264 N
ATOM     34  N   UNL     1      28.515   9.800  -5.276  1.00  0.00    -0.180 NA
BRANCH  33  35
ATOM     35  C   UNL     1      28.263   7.574  -6.356  1.00  0.00     0.088 C
ATOM     36  C   UNL     1      26.835   8.104  -6.675  1.00  0.00     0.048 C
ATOM     37  C   UNL     1      29.051   7.370  -7.680  1.00  0.00     0.048 C
ATOM     38  C   UNL     1      26.419   7.814  -8.113  1.00  0.00     0.083 C
ATOM     39  C   UNL     1      28.717   8.462  -8.689  1.00  0.00     0.083 C
ATOM     40  N   UNL     1      27.304   8.477  -9.070  1.00  0.00    -0.317 NA
ATOM     41  H   UNL     1      27.184   8.046  -9.987  1.00  0.00     0.122 HD
ATOM     42  G   UNL     1      28.208   6.212  -5.609  1.00  0.00     0.000 C
ENDBRANCH  33  35
ENDBRANCH  27  30
ENDBRANCH   4  20
TORSDOF 0
ENDMDL
MODEL 2
REMARK VINA RESULT:     -10.4      2.326      3.701
REMARK SMILES Fc1cc2cc(F)c1CN1CCO[C@@H](COCC3(CCNCC3)n3cc(cn3)-c3cnc4cccc-2c4n3)C1
REMARK SMILES IDX 1 1 2 2 3 3 4 4 5 5 6 6 7 7 8 8 9 9 10 10 11 11 39 12 12 13
REMARK SMILES IDX 14 14 13 15 15 16 16 17 17 18 36 20 35 21 37 22 34 23 38 24
REMARK SMILES IDX 32 25 33 26 29 27 31 28 30 29 26 30 25 31 27 32 24 33 28 34
REMARK SMILES IDX 18 35 19 36 23 37 20 38 22 39 21 40
REMARK H PARENT 21 41
REMARK Flexibility Score:   78.900
ROOT
ATOM      1  F   UNL     1      31.462  14.433  -6.235  1.00  0.00    -0.207 F
ATOM      2  C   UNL     1      31.755  14.467  -4.927  1.00  0.00     0.131 A
ATOM      3  C   UNL     1      32.704  13.573  -4.436  1.00  0.00     0.048 A
ATOM      4  C   UNL     1      33.012  13.523  -3.067  1.00  0.00    -0.010 A
ATOM      5  C   UNL     1      32.386  14.456  -2.228  1.00  0.00     0.048 A
ATOM      6  C   UNL     1      31.449  15.361  -2.740  1.00  0.00     0.131 A
ATOM      7  F   UNL     1      30.877  16.230  -1.894  1.00  0.00    -0.207 F
ATOM      8  C   UNL     1      31.096  15.364  -4.089  1.00  0.00     0.038 A
ENDROOT
BRANCH   8   9
ATOM      9  C   UNL     1      30.048  16.293  -4.641  1.00  0.00     0.126 C
BRANCH   9  10
ATOM     10  N   UNL     1      30.548  17.285  -5.610  1.00  0.00    -0.294 NA
ATOM     11  C   UNL     1      29.428  17.931  -6.334  1.00  0.00     0.113 C
ATOM     12  C   UNL     1      31.423  18.312  -4.990  1.00  0.00     0.119 C
ATOM     13  C   UNL     1      29.075  19.326  -5.792  1.00  0.00     0.176 C
ATOM     14  C   UNL     1      31.459  19.607  -5.834  1.00  0.00     0.158 C
ATOM     15  O   UNL     1      30.168  20.253  -5.844  1.00  0.00    -0.373 OA
BRANCH  14  16
ATOM     16  C   UNL     1      32.523  20.618  -5.368  1.00  0.00     0.193 C
BRANCH  16  17
ATOM     17  O   UNL     1      33.851  20.076  -5.367  1.00  0.00    -0.376 OA
BRANCH  17  18
ATOM     18  C   UNL     1      34.265  19.649  -6.670  1.00  0.00     0.191 C
ATOM     19  G   UNL     1      34.626  18.137  -6.702  1.00  0.00     0.000 C
ENDBRANCH  17  18
ENDBRANCH  16  17
ENDBRANCH  14  16
ENDBRANCH   9  10
ENDBRANCH   8   9
BRANCH   4  20
ATOM     20  C   UNL     1      33.898  12.465  -2.527  1.00  0.00     0.010 A
ATOM     21  C   UNL     1      35.094  12.798  -1.871  1.00  0.00     0.011 A
ATOM     22  C   UNL     1      33.540  11.107  -2.655  1.00  0.00     0.097 A
ATOM     23  C   UNL     1      35.918  11.800  -1.360  1.00  0.00     0.003 A
ATOM     24  N   UNL     1      32.389  10.774  -3.269  1.00  0.00    -0.244 NA
ATOM     25  C   UNL     1      34.375  10.092  -2.132  1.00  0.00     0.089 A
ATOM     26  C   UNL     1      35.552  10.460  -1.495  1.00  0.00     0.030 A
ATOM     27  C   UNL     1      32.057   9.469  -3.381  1.00  0.00     0.092 A
ATOM     28  N   UNL     1      34.048   8.783  -2.239  1.00  0.00    -0.252 NA
ATOM     29  C   UNL     1      32.880   8.490  -2.867  1.00  0.00     0.140 A
BRANCH  27  30
ATOM     30  C   UNL     1      30.792   9.225  -4.039  1.00  0.00     0.040 A
ATOM     31  C   UNL     1      30.470   8.002  -4.589  1.00  0.00     0.119 A
ATOM     32  C   UNL     1      29.682  10.033  -4.354  1.00  0.00     0.145 A
ATOM     33  N   UNL     1      29.273   8.147  -5.236  1.00  0.00    -0.264 N
ATOM     34  N   UNL     1      28.763   9.390  -5.086  1.00  0.00    -0.180 NA
BRANCH  33  35
ATOM     35  C   UNL     1      28.674   7.141  -6.146  1.00  0.00     0.088 C
ATOM     36  C   UNL     1      27.253   6.779  -5.626  1.00  0.00     0.048 C
ATOM     37  C   UNL     1      28.581   7.641  -7.615  1.00  0.00     0.048 C
ATOM     38  C   UNL     1      26.270   6.524  -6.764  1.00  0.00     0.083 C
ATOM     39  C   UNL     1      27.321   8.470  -7.832  1.00  0.00     0.083 C
ATOM     40  N   UNL     1      26.090   7.715  -7.593  1.00  0.00    -0.317 NA
ATOM     41  H   UNL     1      25.670   7.441  -8.482  1.00  0.00     0.122 HD
ATOM     42  G   UNL     1      29.622   5.910  -6.111  1.00  0.00     0.000 C
ENDBRANCH  33  35
ENDBRANCH  27  30
ENDBRANCH   4  20
TORSDOF 0
ENDMDL
MODEL 3
REMARK VINA RESULT:     -10.4      0.842      1.387
REMARK SMILES Fc1cc2cc(F)c1CN1CCO[C@@H](COCC3(CCNCC3)n3cc(cn3)-c3cnc4cccc-2c4n3)C1
REMARK SMILES IDX 1 1 2 2 3 3 4 4 5 5 6 6 7 7 8 8 9 9 10 10 11 11 39 12 12 13
REMARK SMILES IDX 14 14 13 15 15 16 16 17 17 18 36 20 35 21 37 22 34 23 38 24
REMARK SMILES IDX 32 25 33 26 29 27 31 28 30 29 26 30 25 31 27 32 24 33 28 34
REMARK SMILES IDX 18 35 19 36 23 37 20 38 22 39 21 40
REMARK H PARENT 21 41
REMARK Flexibility Score:   78.900
ROOT
ATOM      1  F   UNL     1      32.307  15.252  -6.307  1.00  0.00    -0.207 F
ATOM      2  C   UNL     1      32.261  15.000  -4.990  1.00  0.00     0.131 A
ATOM      3  C   UNL     1      33.115  14.029  -4.472  1.00  0.00     0.048 A
ATOM      4  C   UNL     1      33.074  13.681  -3.112  1.00  0.00    -0.010 A
ATOM      5  C   UNL     1      32.199  14.400  -2.286  1.00  0.00     0.048 A
ATOM      6  C   UNL     1      31.362  15.386  -2.819  1.00  0.00     0.131 A
ATOM      7  F   UNL     1      30.541  16.042  -1.986  1.00  0.00    -0.207 F
ATOM      8  C   UNL     1      31.357  15.684  -4.181  1.00  0.00     0.038 A
ENDROOT
BRANCH   8   9
ATOM      9  C   UNL     1      30.421  16.702  -4.776  1.00  0.00     0.126 C
BRANCH   9  10
ATOM     10  N   UNL     1      29.011  16.559  -4.369  1.00  0.00    -0.294 NA
ATOM     11  C   UNL     1      28.241  17.786  -4.676  1.00  0.00     0.113 C
ATOM     12  C   UNL     1      28.352  15.371  -4.968  1.00  0.00     0.119 C
ATOM     13  C   UNL     1      27.399  17.673  -5.958  1.00  0.00     0.176 C
ATOM     14  C   UNL     1      26.816  15.542  -5.017  1.00  0.00     0.158 C
ATOM     15  O   UNL     1      26.443  16.604  -5.921  1.00  0.00    -0.373 OA
BRANCH  14  16
ATOM     16  C   UNL     1      26.064  14.259  -5.413  1.00  0.00     0.193 C
BRANCH  16  17
ATOM     17  O   UNL     1      26.774  13.464  -6.373  1.00  0.00    -0.376 OA
BRANCH  17  18
ATOM     18  C   UNL     1      26.148  13.480  -7.661  1.00  0.00     0.191 C
ATOM     19  G   UNL     1      27.152  13.837  -8.794  1.00  0.00     0.000 C
ENDBRANCH  17  18
ENDBRANCH  16  17
ENDBRANCH  14  16
ENDBRANCH   9  10
ENDBRANCH   8   9
BRANCH   4  20
ATOM     20  C   UNL     1      33.866  12.538  -2.598  1.00  0.00     0.010 A
ATOM     21  C   UNL     1      35.082  12.753  -1.930  1.00  0.00     0.011 A
ATOM     22  C   UNL     1      33.396  11.219  -2.762  1.00  0.00     0.097 A
ATOM     23  C   UNL     1      35.817  11.676  -1.443  1.00  0.00     0.003 A
ATOM     24  N   UNL     1      32.225  11.000  -3.388  1.00  0.00    -0.244 NA
ATOM     25  C   UNL     1      34.140  10.124  -2.264  1.00  0.00     0.089 A
ATOM     26  C   UNL     1      35.340  10.376  -1.614  1.00  0.00     0.030 A
ATOM     27  C   UNL     1      31.784   9.731  -3.536  1.00  0.00     0.092 A
ATOM     28  N   UNL     1      33.705   8.850  -2.407  1.00  0.00    -0.252 NA
ATOM     29  C   UNL     1      32.519   8.673  -3.046  1.00  0.00     0.140 A
BRANCH  27  30
ATOM     30  C   UNL     1      30.507   9.611  -4.205  1.00  0.00     0.040 A
ATOM     31  C   UNL     1      30.136   8.474  -4.889  1.00  0.00     0.119 A
ATOM     32  C   UNL     1      29.426  10.490  -4.412  1.00  0.00     0.145 A
ATOM     33  N   UNL     1      28.941   8.736  -5.502  1.00  0.00    -0.264 N
ATOM     34  N   UNL     1      28.479   9.970  -5.203  1.00  0.00    -0.180 NA
BRANCH  33  35
ATOM     35  C   UNL     1      28.299   7.866  -6.516  1.00  0.00     0.088 C
ATOM     36  C   UNL     1      28.469   6.381  -6.080  1.00  0.00     0.048 C
ATOM     37  C   UNL     1      26.790   8.183  -6.712  1.00  0.00     0.048 C
ATOM     38  C   UNL     1      27.253   5.533  -6.436  1.00  0.00     0.083 C
ATOM     39  C   UNL     1      25.940   7.463  -5.672  1.00  0.00     0.083 C
ATOM     40  N   UNL     1      26.051   6.006  -5.751  1.00  0.00    -0.317 NA
ATOM     41  H   UNL     1      25.229   5.617  -6.215  1.00  0.00     0.122 HD
ATOM     42  G   UNL     1      29.033   8.151  -7.856  1.00  0.00     0.000 C
ENDBRANCH  33  35
ENDBRANCH  27  30
ENDBRANCH   4  20
TORSDOF 0
ENDMDL
MODEL 4
REMARK VINA RESULT:     -10.2      0.894      1.974
REMARK SMILES Fc1cc2cc(F)c1CN1CCO[C@@H](COCC3(CCNCC3)n3cc(cn3)-c3cnc4cccc-2c4n3)C1
REMARK SMILES IDX 1 1 2 2 3 3 4 4 5 5 6 6 7 7 8 8 9 9 10 10 11 11 39 12 12 13
REMARK SMILES IDX 14 14 13 15 15 16 16 17 17 18 36 20 35 21 37 22 34 23 38 24
REMARK SMILES IDX 32 25 33 26 29 27 31 28 30 29 26 30 25 31 27 32 24 33 28 34
REMARK SMILES IDX 18 35 19 36 23 37 20 38 22 39 21 40
REMARK H PARENT 21 41
REMARK Flexibility Score:   78.900
ROOT
ATOM      1  F   UNL     1      30.929  16.326  -1.795  1.00  0.00    -0.207 F
ATOM      2  C   UNL     1      31.539  15.525  -2.681  1.00  0.00     0.131 A
ATOM      3  C   UNL     1      32.247  14.424  -2.202  1.00  0.00     0.048 A
ATOM      4  C   UNL     1      32.952  13.581  -3.076  1.00  0.00    -0.010 A
ATOM      5  C   UNL     1      32.854  13.845  -4.449  1.00  0.00     0.048 A
ATOM      6  C   UNL     1      32.124  14.944  -4.915  1.00  0.00     0.131 A
ATOM      7  F   UNL     1      32.066  15.153  -6.238  1.00  0.00    -0.207 F
ATOM      8  C   UNL     1      31.478  15.817  -4.041  1.00  0.00     0.038 A
ENDROOT
BRANCH   8   9
ATOM      9  C   UNL     1      30.738  17.035  -4.526  1.00  0.00     0.126 C
BRANCH   9  10
ATOM     10  N   UNL     1      29.269  16.938  -4.451  1.00  0.00    -0.294 NA
ATOM     11  C   UNL     1      28.623  18.004  -5.252  1.00  0.00     0.113 C
ATOM     12  C   UNL     1      28.754  15.605  -4.854  1.00  0.00     0.119 C
ATOM     13  C   UNL     1      28.121  17.518  -6.622  1.00  0.00     0.176 C
ATOM     14  C   UNL     1      27.282  15.685  -5.318  1.00  0.00     0.158 C
ATOM     15  O   UNL     1      27.164  16.453  -6.534  1.00  0.00    -0.373 OA
BRANCH  14  16
ATOM     16  C   UNL     1      26.625  14.309  -5.529  1.00  0.00     0.193 C
BRANCH  16  17
ATOM     17  O   UNL     1      25.228  14.394  -5.847  1.00  0.00    -0.376 OA
BRANCH  17  18
ATOM     18  C   UNL     1      24.942  13.926  -7.169  1.00  0.00     0.191 C
ATOM     19  G   UNL     1      26.066  13.003  -7.719  1.00  0.00     0.000 C
ENDBRANCH  17  18
ENDBRANCH  16  17
ENDBRANCH  14  16
ENDBRANCH   9  10
ENDBRANCH   8   9
BRANCH   4  20
ATOM     20  C   UNL     1      33.833  12.511  -2.550  1.00  0.00     0.010 A
ATOM     21  C   UNL     1      35.030  12.830  -1.889  1.00  0.00     0.011 A
ATOM     22  C   UNL     1      33.469  11.157  -2.696  1.00  0.00     0.097 A
ATOM     23  C   UNL     1      35.849  11.821  -1.392  1.00  0.00     0.003 A
ATOM     24  N   UNL     1      32.317  10.838  -3.315  1.00  0.00    -0.244 NA
ATOM     25  C   UNL     1      34.298  10.131  -2.187  1.00  0.00     0.089 A
ATOM     26  C   UNL     1      35.477  10.485  -1.545  1.00  0.00     0.030 A
ATOM     27  C   UNL     1      31.978   9.537  -3.446  1.00  0.00     0.092 A
ATOM     28  N   UNL     1      33.966   8.825  -2.312  1.00  0.00    -0.252 NA
ATOM     29  C   UNL     1      32.796   8.546  -2.945  1.00  0.00     0.140 A
BRANCH  27  30
ATOM     30  C   UNL     1      30.712   9.307  -4.108  1.00  0.00     0.040 A
ATOM     31  C   UNL     1      30.450   8.157  -4.821  1.00  0.00     0.119 A
ATOM     32  C   UNL     1      29.547  10.079  -4.282  1.00  0.00     0.145 A
ATOM     33  N   UNL     1      29.229   8.315  -5.417  1.00  0.00    -0.264 N
ATOM     34  N   UNL     1      28.648   9.488  -5.081  1.00  0.00    -0.180 NA
BRANCH  33  35
ATOM     35  C   UNL     1      28.667   7.412  -6.451  1.00  0.00     0.088 C
ATOM     36  C   UNL     1      29.317   6.007  -6.294  1.00  0.00     0.048 C
ATOM     37  C   UNL     1      27.121   7.285  -6.360  1.00  0.00     0.048 C
ATOM     38  C   UNL     1      28.335   4.880  -6.595  1.00  0.00     0.083 C
ATOM     39  C   UNL     1      26.717   6.232  -5.335  1.00  0.00     0.083 C
ATOM     40  N   UNL     1      27.204   4.893  -5.667  1.00  0.00    -0.317 NA
ATOM     41  H   UNL     1      26.447   4.332  -6.058  1.00  0.00     0.122 HD
ATOM     42  G   UNL     1      29.023   8.052  -7.822  1.00  0.00     0.000 C
ENDBRANCH  33  35
ENDBRANCH  27  30
ENDBRANCH   4  20
TORSDOF 0
ENDMDL
MODEL 5
REMARK VINA RESULT:     -10.1      0.920      1.612
REMARK SMILES Fc1cc2cc(F)c1CN1CCO[C@@H](COCC3(CCNCC3)n3cc(cn3)-c3cnc4cccc-2c4n3)C1
REMARK SMILES IDX 1 1 2 2 3 3 4 4 5 5 6 6 7 7 8 8 9 9 10 10 11 11 39 12 12 13
REMARK SMILES IDX 14 14 13 15 15 16 16 17 17 18 36 20 35 21 37 22 34 23 38 24
REMARK SMILES IDX 32 25 33 26 29 27 31 28 30 29 26 30 25 31 27 32 24 33 28 34
REMARK SMILES IDX 18 35 19 36 23 37 20 38 22 39 21 40
REMARK H PARENT 21 41
REMARK Flexibility Score:   78.900
ROOT
ATOM      1  F   UNL     1      31.329  14.245  -6.454  1.00  0.00    -0.207 F
ATOM      2  C   UNL     1      31.703  14.373  -5.173  1.00  0.00     0.131 A
ATOM      3  C   UNL     1      32.590  13.437  -4.644  1.00  0.00     0.048 A
ATOM      4  C   UNL     1      32.975  13.486  -3.295  1.00  0.00    -0.010 A
ATOM      5  C   UNL     1      32.494  14.553  -2.523  1.00  0.00     0.048 A
ATOM      6  C   UNL     1      31.620  15.496  -3.074  1.00  0.00     0.131 A
ATOM      7  F   UNL     1      31.187  16.494  -2.291  1.00  0.00    -0.207 F
ATOM      8  C   UNL     1      31.187  15.408  -4.396  1.00  0.00     0.038 A
ENDROOT
BRANCH   8   9
ATOM      9  C   UNL     1      30.201  16.382  -4.983  1.00  0.00     0.126 C
BRANCH   9  10
ATOM     10  N   UNL     1      28.827  16.261  -4.464  1.00  0.00    -0.294 NA
ATOM     11  C   UNL     1      28.075  17.524  -4.650  1.00  0.00     0.113 C
ATOM     12  C   UNL     1      28.080  15.124  -5.059  1.00  0.00     0.119 C
ATOM     13  C   UNL     1      27.125  17.497  -5.859  1.00  0.00     0.176 C
ATOM     14  C   UNL     1      26.553  15.342  -4.969  1.00  0.00     0.158 C
ATOM     15  O   UNL     1      26.141  16.456  -5.789  1.00  0.00    -0.373 OA
BRANCH  14  16
ATOM     16  C   UNL     1      25.728  14.102  -5.357  1.00  0.00     0.193 C
BRANCH  16  17
ATOM     17  O   UNL     1      26.326  13.334  -6.411  1.00  0.00    -0.376 OA
BRANCH  17  18
ATOM     18  C   UNL     1      25.787  13.662  -7.696  1.00  0.00     0.191 C
ATOM     19  G   UNL     1      24.233  13.667  -7.694  1.00  0.00     0.000 C
ENDBRANCH  17  18
ENDBRANCH  16  17
ENDBRANCH  14  16
ENDBRANCH   9  10
ENDBRANCH   8   9
BRANCH   4  20
ATOM     20  C   UNL     1      33.786  12.398  -2.699  1.00  0.00     0.010 A
ATOM     21  C   UNL     1      34.973  12.687  -2.007  1.00  0.00     0.011 A
ATOM     22  C   UNL     1      33.364  11.057  -2.807  1.00  0.00     0.097 A
ATOM     23  C   UNL     1      35.727  11.662  -1.443  1.00  0.00     0.003 A
ATOM     24  N   UNL     1      32.220  10.767  -3.455  1.00  0.00    -0.244 NA
ATOM     25  C   UNL     1      34.126  10.015  -2.230  1.00  0.00     0.089 A
ATOM     26  C   UNL     1      35.298  10.340  -1.560  1.00  0.00     0.030 A
ATOM     27  C   UNL     1      31.825   9.478  -3.548  1.00  0.00     0.092 A
ATOM     28  N   UNL     1      33.738   8.722  -2.318  1.00  0.00    -0.252 NA
ATOM     29  C   UNL     1      32.578   8.472  -2.982  1.00  0.00     0.140 A
BRANCH  27  30
ATOM     30  C   UNL     1      30.574   9.281  -4.247  1.00  0.00     0.040 A
ATOM     31  C   UNL     1      30.176   8.047  -4.715  1.00  0.00     0.119 A
ATOM     32  C   UNL     1      29.549  10.145  -4.677  1.00  0.00     0.145 A
ATOM     33  N   UNL     1      29.023   8.232  -5.429  1.00  0.00    -0.264 N
ATOM     34  N   UNL     1      28.611   9.519  -5.400  1.00  0.00    -0.180 NA
BRANCH  33  35
ATOM     35  C   UNL     1      28.383   7.206  -6.286  1.00  0.00     0.088 C
ATOM     36  C   UNL     1      29.474   6.552  -7.183  1.00  0.00     0.048 C
ATOM     37  C   UNL     1      27.656   6.106  -5.464  1.00  0.00     0.048 C
ATOM     38  C   UNL     1      29.222   5.066  -7.408  1.00  0.00     0.083 C
ATOM     39  C   UNL     1      28.629   5.018  -5.025  1.00  0.00     0.083 C
ATOM     40  N   UNL     1      29.255   4.321  -6.150  1.00  0.00    -0.317 NA
ATOM     41  H   UNL     1      28.811   3.412  -6.289  1.00  0.00     0.122 HD
ATOM     42  G   UNL     1      27.322   7.957  -7.139  1.00  0.00     0.000 C
ENDBRANCH  33  35
ENDBRANCH  27  30
ENDBRANCH   4  20
TORSDOF 0
ENDMDL
MODEL 6
REMARK VINA RESULT:     -10.1      0.607      1.441
REMARK SMILES Fc1cc2cc(F)c1CN1CCO[C@@H](COCC3(CCNCC3)n3cc(cn3)-c3cnc4cccc-2c4n3)C1
REMARK SMILES IDX 1 1 2 2 3 3 4 4 5 5 6 6 7 7 8 8 9 9 10 10 11 11 39 12 12 13
REMARK SMILES IDX 14 14 13 15 15 16 16 17 17 18 36 20 35 21 37 22 34 23 38 24
REMARK SMILES IDX 32 25 33 26 29 27 31 28 30 29 26 30 25 31 27 32 24 33 28 34
REMARK SMILES IDX 18 35 19 36 23 37 20 38 22 39 21 40
REMARK H PARENT 21 41
REMARK Flexibility Score:   78.900
ROOT
ATOM      1  F   UNL     1      31.014  16.471  -1.982  1.00  0.00    -0.207 F
ATOM      2  C   UNL     1      31.584  15.640  -2.867  1.00  0.00     0.131 A
ATOM      3  C   UNL     1      32.213  14.493  -2.388  1.00  0.00     0.048 A
ATOM      4  C   UNL     1      32.877  13.614  -3.259  1.00  0.00    -0.010 A
ATOM      5  C   UNL     1      32.816  13.894  -4.631  1.00  0.00     0.048 A
ATOM      6  C   UNL     1      32.163  15.040  -5.098  1.00  0.00     0.131 A
ATOM      7  F   UNL     1      32.138  15.264  -6.420  1.00  0.00    -0.207 F
ATOM      8  C   UNL     1      31.562  15.946  -4.225  1.00  0.00     0.038 A
ENDROOT
BRANCH   8   9
ATOM      9  C   UNL     1      30.908  17.213  -4.710  1.00  0.00     0.126 C
BRANCH   9  10
ATOM     10  N   UNL     1      29.451  17.280  -4.493  1.00  0.00    -0.294 NA
ATOM     11  C   UNL     1      28.851  18.400  -5.253  1.00  0.00     0.113 C
ATOM     12  C   UNL     1      28.757  16.007  -4.814  1.00  0.00     0.119 C
ATOM     13  C   UNL     1      28.168  17.956  -6.558  1.00  0.00     0.176 C
ATOM     14  C   UNL     1      27.265  16.244  -5.138  1.00  0.00     0.158 C
ATOM     15  O   UNL     1      27.114  17.005  -6.355  1.00  0.00    -0.373 OA
BRANCH  14  16
ATOM     16  C   UNL     1      26.444  14.946  -5.253  1.00  0.00     0.193 C
BRANCH  16  17
ATOM     17  O   UNL     1      25.717  14.848  -6.485  1.00  0.00    -0.376 OA
BRANCH  17  18
ATOM     18  C   UNL     1      26.079  13.685  -7.239  1.00  0.00     0.191 C
ATOM     19  G   UNL     1      27.222  13.978  -8.251  1.00  0.00     0.000 C
ENDBRANCH  17  18
ENDBRANCH  16  17
ENDBRANCH  14  16
ENDBRANCH   9  10
ENDBRANCH   8   9
BRANCH   4  20
ATOM     20  C   UNL     1      33.680  12.486  -2.731  1.00  0.00     0.010 A
ATOM     21  C   UNL     1      34.887  12.722  -2.053  1.00  0.00     0.011 A
ATOM     22  C   UNL     1      33.231  11.159  -2.891  1.00  0.00     0.097 A
ATOM     23  C   UNL     1      35.633  11.659  -1.553  1.00  0.00     0.003 A
ATOM     24  N   UNL     1      32.068  10.919  -3.526  1.00  0.00    -0.244 NA
ATOM     25  C   UNL     1      33.986  10.078  -2.379  1.00  0.00     0.089 A
ATOM     26  C   UNL     1      35.177  10.351  -1.720  1.00  0.00     0.030 A
ATOM     27  C   UNL     1      31.648   9.643  -3.670  1.00  0.00     0.092 A
ATOM     28  N   UNL     1      33.571   8.797  -2.518  1.00  0.00    -0.252 NA
ATOM     29  C   UNL     1      32.394   8.598  -3.167  1.00  0.00     0.140 A
BRANCH  27  30
ATOM     30  C   UNL     1      30.379   9.500  -4.349  1.00  0.00     0.040 A
ATOM     31  C   UNL     1      29.995   8.324  -4.958  1.00  0.00     0.119 A
ATOM     32  C   UNL     1      29.319  10.383  -4.635  1.00  0.00     0.145 A
ATOM     33  N   UNL     1      28.815   8.566  -5.607  1.00  0.00    -0.264 N
ATOM     34  N   UNL     1      28.373   9.826  -5.403  1.00  0.00    -0.180 NA
BRANCH  33  35
ATOM     35  C   UNL     1      28.171   7.638  -6.568  1.00  0.00     0.088 C
ATOM     36  C   UNL     1      26.724   8.136  -6.852  1.00  0.00     0.048 C
ATOM     37  C   UNL     1      28.954   7.519  -7.905  1.00  0.00     0.048 C
ATOM     38  C   UNL     1      26.306   7.898  -8.298  1.00  0.00     0.083 C
ATOM     39  C   UNL     1      28.577   8.644  -8.861  1.00  0.00     0.083 C
ATOM     40  N   UNL     1      27.161   8.631  -9.231  1.00  0.00    -0.317 NA
ATOM     41  H   UNL     1      27.047   8.238 -10.166  1.00  0.00     0.122 HD
ATOM     42  G   UNL     1      28.165   6.242  -5.882  1.00  0.00     0.000 C
ENDBRANCH  33  35
ENDBRANCH  27  30
ENDBRANCH   4  20
TORSDOF 0
ENDMDL
MODEL 7
REMARK VINA RESULT:     -10.0      1.139      1.644
REMARK SMILES Fc1cc2cc(F)c1CN1CCO[C@@H](COCC3(CCNCC3)n3cc(cn3)-c3cnc4cccc-2c4n3)C1
REMARK SMILES IDX 1 1 2 2 3 3 4 4 5 5 6 6 7 7 8 8 9 9 10 10 11 11 39 12 12 13
REMARK SMILES IDX 14 14 13 15 15 16 16 17 17 18 36 20 35 21 37 22 34 23 38 24
REMARK SMILES IDX 32 25 33 26 29 27 31 28 30 29 26 30 25 31 27 32 24 33 28 34
REMARK SMILES IDX 18 35 19 36 23 37 20 38 22 39 21 40
REMARK H PARENT 21 41
REMARK Flexibility Score:   78.900
ROOT
ATOM      1  F   UNL     1      30.483  13.146  -5.967  1.00  0.00    -0.207 F
ATOM      2  C   UNL     1      31.304  13.680  -5.051  1.00  0.00     0.131 A
ATOM      3  C   UNL     1      32.234  12.850  -4.429  1.00  0.00     0.048 A
ATOM      4  C   UNL     1      33.083  13.339  -3.423  1.00  0.00    -0.010 A
ATOM      5  C   UNL     1      33.011  14.706  -3.124  1.00  0.00     0.048 A
ATOM      6  C   UNL     1      32.084  15.531  -3.771  1.00  0.00     0.131 A
ATOM      7  F   UNL     1      32.054  16.831  -3.444  1.00  0.00    -0.207 F
ATOM      8  C   UNL     1      31.198  15.030  -4.723  1.00  0.00     0.038 A
ENDROOT
BRANCH   8   9
ATOM      9  C   UNL     1      30.158  15.895  -5.384  1.00  0.00     0.126 C
BRANCH   9  10
ATOM     10  N   UNL     1      28.844  15.904  -4.715  1.00  0.00    -0.294 NA
ATOM     11  C   UNL     1      28.225  17.248  -4.777  1.00  0.00     0.113 C
ATOM     12  C   UNL     1      27.912  14.881  -5.253  1.00  0.00     0.119 C
ATOM     13  C   UNL     1      27.151  17.376  -5.870  1.00  0.00     0.176 C
ATOM     14  C   UNL     1      26.439  15.262  -4.983  1.00  0.00     0.158 C
ATOM     15  O   UNL     1      26.068  16.448  -5.718  1.00  0.00    -0.373 OA
BRANCH  14  16
ATOM     16  C   UNL     1      25.440  14.136  -5.311  1.00  0.00     0.193 C
BRANCH  16  17
ATOM     17  O   UNL     1      24.894  14.236  -6.633  1.00  0.00    -0.376 OA
BRANCH  17  18
ATOM     18  C   UNL     1      25.665  13.509  -7.596  1.00  0.00     0.191 C
ATOM     19  G   UNL     1      24.770  12.647  -8.531  1.00  0.00     0.000 C
ENDBRANCH  17  18
ENDBRANCH  16  17
ENDBRANCH  14  16
ENDBRANCH   9  10
ENDBRANCH   8   9
BRANCH   4  20
ATOM     20  C   UNL     1      33.954  12.419  -2.653  1.00  0.00     0.010 A
ATOM     21  C   UNL     1      35.034  12.914  -1.906  1.00  0.00     0.011 A
ATOM     22  C   UNL     1      33.696  11.033  -2.652  1.00  0.00     0.097 A
ATOM     23  C   UNL     1      35.844  12.047  -1.179  1.00  0.00     0.003 A
ATOM     24  N   UNL     1      32.656  10.546  -3.353  1.00  0.00    -0.244 NA
ATOM     25  C   UNL     1      34.516  10.150  -1.911  1.00  0.00     0.089 A
ATOM     26  C   UNL     1      35.578  10.677  -1.188  1.00  0.00     0.030 A
ATOM     27  C   UNL     1      32.418   9.216  -3.341  1.00  0.00     0.092 A
ATOM     28  N   UNL     1      34.284   8.817  -1.892  1.00  0.00    -0.252 NA
ATOM     29  C   UNL     1      33.225   8.367  -2.614  1.00  0.00     0.140 A
BRANCH  27  30
ATOM     30  C   UNL     1      31.265   8.803  -4.110  1.00  0.00     0.040 A
ATOM     31  C   UNL     1      30.362   9.707  -4.629  1.00  0.00     0.119 A
ATOM     32  C   UNL     1      30.724   7.552  -4.466  1.00  0.00     0.145 A
ATOM     33  N   UNL     1      29.337   8.988  -5.183  1.00  0.00    -0.264 N
ATOM     34  N   UNL     1      29.553   7.657  -5.108  1.00  0.00    -0.180 NA
BRANCH  33  35
ATOM     35  C   UNL     1      28.054   9.566  -5.652  1.00  0.00     0.088 C
ATOM     36  C   UNL     1      28.004   9.478  -7.206  1.00  0.00     0.048 C
ATOM     37  C   UNL     1      26.816   8.846  -5.049  1.00  0.00     0.048 C
ATOM     38  C   UNL     1      26.599   9.192  -7.722  1.00  0.00     0.083 C
ATOM     39  C   UNL     1      26.459   7.602  -5.855  1.00  0.00     0.083 C
ATOM     40  N   UNL     1      26.104   7.901  -7.243  1.00  0.00    -0.317 NA
ATOM     41  H   UNL     1      25.091   7.870  -7.359  1.00  0.00     0.122 HD
ATOM     42  G   UNL     1      28.043  11.042  -5.167  1.00  0.00     0.000 C
ENDBRANCH  33  35
ENDBRANCH  27  30
ENDBRANCH   4  20
TORSDOF 0
ENDMDL
MODEL 8
REMARK VINA RESULT:     -10.0      2.531      4.092
REMARK SMILES Fc1cc2cc(F)c1CN1CCO[C@@H](COCC3(CCNCC3)n3cc(cn3)-c3cnc4cccc-2c4n3)C1
REMARK SMILES IDX 1 1 2 2 3 3 4 4 5 5 6 6 7 7 8 8 9 9 10 10 11 11 39 12 12 13
REMARK SMILES IDX 14 14 13 15 15 16 16 17 17 18 36 20 35 21 37 22 34 23 38 24
REMARK SMILES IDX 32 25 33 26 29 27 31 28 30 29 26 30 25 31 27 32 24 33 28 34
REMARK SMILES IDX 18 35 19 36 23 37 20 38 22 39 21 40
REMARK H PARENT 21 41
REMARK Flexibility Score:   78.900
ROOT
ATOM      1  F   UNL     1      30.928  14.723  -6.205  1.00  0.00    -0.207 F
ATOM      2  C   UNL     1      31.325  14.725  -4.924  1.00  0.00     0.131 A
ATOM      3  C   UNL     1      32.289  13.801  -4.527  1.00  0.00     0.048 A
ATOM      4  C   UNL     1      32.704  13.718  -3.188  1.00  0.00    -0.010 A
ATOM      5  C   UNL     1      32.170  14.648  -2.286  1.00  0.00     0.048 A
ATOM      6  C   UNL     1      31.217  15.583  -2.705  1.00  0.00     0.131 A
ATOM      7  F   UNL     1      30.735  16.448  -1.801  1.00  0.00    -0.207 F
ATOM      8  C   UNL     1      30.758  15.621  -4.021  1.00  0.00     0.038 A
ENDROOT
BRANCH   8   9
ATOM      9  C   UNL     1      29.691  16.583  -4.470  1.00  0.00     0.126 C
BRANCH   9  10
ATOM     10  N   UNL     1      30.108  17.520  -5.529  1.00  0.00    -0.294 NA
ATOM     11  C   UNL     1      28.963  17.894  -6.391  1.00  0.00     0.113 C
ATOM     12  C   UNL     1      30.774  18.737  -4.998  1.00  0.00     0.119 C
ATOM     13  C   UNL     1      28.367  19.271  -6.051  1.00  0.00     0.176 C
ATOM     14  C   UNL     1      30.679  19.913  -5.996  1.00  0.00     0.158 C
ATOM     15  O   UNL     1      29.312  20.344  -6.160  1.00  0.00    -0.373 OA
BRANCH  14  16
ATOM     16  C   UNL     1      31.544  21.125  -5.606  1.00  0.00     0.193 C
BRANCH  16  17
ATOM     17  O   UNL     1      32.917  20.784  -5.366  1.00  0.00    -0.376 OA
BRANCH  17  18
ATOM     18  C   UNL     1      33.692  21.910  -4.941  1.00  0.00     0.191 C
ATOM     19  G   UNL     1      34.808  22.270  -5.961  1.00  0.00     0.000 C
ENDBRANCH  17  18
ENDBRANCH  16  17
ENDBRANCH  14  16
ENDBRANCH   9  10
ENDBRANCH   8   9
BRANCH   4  20
ATOM     20  C   UNL     1      33.606  12.630  -2.740  1.00  0.00     0.010 A
ATOM     21  C   UNL     1      34.838  12.924  -2.135  1.00  0.00     0.011 A
ATOM     22  C   UNL     1      33.226  11.282  -2.905  1.00  0.00     0.097 A
ATOM     23  C   UNL     1      35.676  11.898  -1.710  1.00  0.00     0.003 A
ATOM     24  N   UNL     1      32.041  10.985  -3.470  1.00  0.00    -0.244 NA
ATOM     25  C   UNL     1      34.075  10.238  -2.469  1.00  0.00     0.089 A
ATOM     26  C   UNL     1      35.289  10.569  -1.880  1.00  0.00     0.030 A
ATOM     27  C   UNL     1      31.688   9.690  -3.619  1.00  0.00     0.092 A
ATOM     28  N   UNL     1      33.729   8.938  -2.613  1.00  0.00    -0.252 NA
ATOM     29  C   UNL     1      32.526   8.682  -3.189  1.00  0.00     0.140 A
BRANCH  27  30
ATOM     30  C   UNL     1      30.388   9.485  -4.219  1.00  0.00     0.040 A
ATOM     31  C   UNL     1      30.087   8.364  -4.962  1.00  0.00     0.119 A
ATOM     32  C   UNL     1      29.215  10.260  -4.297  1.00  0.00     0.145 A
ATOM     33  N   UNL     1      28.834   8.543  -5.484  1.00  0.00    -0.264 N
ATOM     34  N   UNL     1      28.274   9.700  -5.068  1.00  0.00    -0.180 NA
BRANCH  33  35
ATOM     35  C   UNL     1      28.217   7.682  -6.520  1.00  0.00     0.088 C
ATOM     36  C   UNL     1      28.666   6.211  -6.281  1.00  0.00     0.048 C
ATOM     37  C   UNL     1      26.665   7.760  -6.519  1.00  0.00     0.048 C
ATOM     38  C   UNL     1      27.562   5.211  -6.606  1.00  0.00     0.083 C
ATOM     39  C   UNL     1      26.069   6.809  -5.488  1.00  0.00     0.083 C
ATOM     40  N   UNL     1      26.393   5.406  -5.748  1.00  0.00    -0.317 NA
ATOM     41  H   UNL     1      25.591   4.933  -6.167  1.00  0.00     0.122 HD
ATOM     42  G   UNL     1      28.729   8.216  -7.887  1.00  0.00     0.000 C
ENDBRANCH  33  35
ENDBRANCH  27  30
ENDBRANCH   4  20
TORSDOF 0
ENDMDL
MODEL 9
REMARK VINA RESULT:     -10.0      3.143      7.730
REMARK SMILES Fc1cc2cc(F)c1CN1CCO[C@@H](COCC3(CCNCC3)n3cc(cn3)-c3cnc4cccc-2c4n3)C1
REMARK SMILES IDX 1 1 2 2 3 3 4 4 5 5 6 6 7 7 8 8 9 9 10 10 11 11 39 12 12 13
REMARK SMILES IDX 14 14 13 15 15 16 16 17 17 18 36 20 35 21 37 22 34 23 38 24
REMARK SMILES IDX 32 25 33 26 29 27 31 28 30 29 26 30 25 31 27 32 24 33 28 34
REMARK SMILES IDX 18 35 19 36 23 37 20 38 22 39 21 40
REMARK H PARENT 21 41
REMARK Flexibility Score:   78.900
ROOT
ATOM      1  F   UNL     1      29.056  10.753  -5.495  1.00  0.00    -0.207 F
ATOM      2  C   UNL     1      29.843   9.822  -4.936  1.00  0.00     0.131 A
ATOM      3  C   UNL     1      30.884  10.242  -4.111  1.00  0.00     0.048 A
ATOM      4  C   UNL     1      31.776   9.318  -3.543  1.00  0.00    -0.010 A
ATOM      5  C   UNL     1      31.532   7.957  -3.775  1.00  0.00     0.048 A
ATOM      6  C   UNL     1      30.471   7.550  -4.591  1.00  0.00     0.131 A
ATOM      7  F   UNL     1      30.284   6.237  -4.783  1.00  0.00    -0.207 F
ATOM      8  C   UNL     1      29.626   8.473  -5.207  1.00  0.00     0.038 A
ENDROOT
BRANCH   8   9
ATOM      9  C   UNL     1      28.517   8.050  -6.133  1.00  0.00     0.126 C
BRANCH   9  10
ATOM     10  N   UNL     1      28.930   7.816  -7.528  1.00  0.00    -0.294 NA
ATOM     11  C   UNL     1      28.755   6.394  -7.903  1.00  0.00     0.113 C
ATOM     12  C   UNL     1      28.228   8.696  -8.497  1.00  0.00     0.119 C
ATOM     13  C   UNL     1      27.481   6.132  -8.725  1.00  0.00     0.176 C
ATOM     14  C   UNL     1      28.220   8.082  -9.915  1.00  0.00     0.158 C
ATOM     15  O   UNL     1      27.430   6.874  -9.951  1.00  0.00    -0.373 OA
BRANCH  14  16
ATOM     16  C   UNL     1      27.713   9.046 -11.003  1.00  0.00     0.193 C
BRANCH  16  17
ATOM     17  O   UNL     1      26.887  10.097 -10.482  1.00  0.00    -0.376 OA
BRANCH  17  18
ATOM     18  C   UNL     1      27.232  11.378 -11.022  1.00  0.00     0.191 C
ATOM     19  G   UNL     1      28.709  11.430 -11.505  1.00  0.00     0.000 C
ENDBRANCH  17  18
ENDBRANCH  16  17
ENDBRANCH  14  16
ENDBRANCH   9  10
ENDBRANCH   8   9
BRANCH   4  20
ATOM     20  C   UNL     1      32.974   9.778  -2.802  1.00  0.00     0.010 A
ATOM     21  C   UNL     1      33.733   8.877  -2.038  1.00  0.00     0.011 A
ATOM     22  C   UNL     1      33.374  11.128  -2.869  1.00  0.00     0.097 A
ATOM     23  C   UNL     1      34.861   9.314  -1.350  1.00  0.00     0.003 A
ATOM     24  N   UNL     1      32.664  12.000  -3.609  1.00  0.00    -0.244 NA
ATOM     25  C   UNL     1      34.523  11.573  -2.174  1.00  0.00     0.089 A
ATOM     26  C   UNL     1      35.244  10.653  -1.424  1.00  0.00     0.030 A
ATOM     27  C   UNL     1      33.060  13.290  -3.667  1.00  0.00     0.092 A
ATOM     28  N   UNL     1      34.928  12.863  -2.228  1.00  0.00    -0.252 NA
ATOM     29  C   UNL     1      34.182  13.710  -2.985  1.00  0.00     0.140 A
BRANCH  27  30
ATOM     30  C   UNL     1      32.239  14.135  -4.506  1.00  0.00     0.040 A
ATOM     31  C   UNL     1      32.612  15.415  -4.855  1.00  0.00     0.119 A
ATOM     32  C   UNL     1      30.965  13.990  -5.089  1.00  0.00     0.145 A
ATOM     33  N   UNL     1      31.566  15.975  -5.537  1.00  0.00    -0.264 N
ATOM     34  N   UNL     1      30.548  15.103  -5.708  1.00  0.00    -0.180 NA
BRANCH  33  35
ATOM     35  C   UNL     1      31.460  17.409  -5.899  1.00  0.00     0.088 C
ATOM     36  C   UNL     1      31.605  18.263  -4.606  1.00  0.00     0.048 C
ATOM     37  C   UNL     1      32.530  17.847  -6.936  1.00  0.00     0.048 C
ATOM     38  C   UNL     1      32.355  19.566  -4.856  1.00  0.00     0.083 C
ATOM     39  C   UNL     1      33.845  18.199  -6.251  1.00  0.00     0.083 C
ATOM     40  N   UNL     1      33.722  19.318  -5.315  1.00  0.00    -0.317 NA
ATOM     41  H   UNL     1      34.090  20.170  -5.738  1.00  0.00     0.122 HD
ATOM     42  G   UNL     1      30.056  17.589  -6.543  1.00  0.00     0.000 C
ENDBRANCH  33  35
ENDBRANCH  27  30
ENDBRANCH   4  20
TORSDOF 0
ENDMDL
