MODEL 1
REMARK VINA RESULT:     -11.3      0.000      0.000
REMARK SMILES CN1CCN2c3ccc(cn3)-c3cnc4cccc(c4n3)-c3cc(F)c(c(F)c3)CN3CCS(=O)(=O)C[C@H]3COC[C@@H]2C1
REMARK SMILES IDX 22 1 23 2 24 3 25 4 26 5 27 6 28 7 29 8 19 9 12 10 13 11
REMARK SMILES IDX 21 12 14 13 20 14 15 15 16 16 18 17 17 18 9 19 6 20 7 21
REMARK SMILES IDX 11 22 8 23 10 24 5 25 2 26 3 27 43 28 4 29 42 30 1 31 30 33
REMARK SMILES IDX 31 34 32 35 38 36 33 37 37 38 34 39 35 40 36 41 39 42 40 43
REMARK SMILES IDX 41 44
REMARK H PARENT
REMARK Flexibility Score:   82.900
ROOT
ATOM      1  C   UNL     1      32.386  13.479  -4.048  1.00  0.00    -0.010 A
ATOM      2  C   UNL     1      31.018  13.328  -3.778  1.00  0.00     0.048 A
ATOM      3  C   UNL     1      30.075  14.102  -4.455  1.00  0.00     0.131 A
ATOM      4  F   UNL     1      28.777  13.927  -4.164  1.00  0.00    -0.207 F
ATOM      5  C   UNL     1      30.450  15.039  -5.418  1.00  0.00     0.038 A
ATOM      6  C   UNL     1      31.808  15.164  -5.701  1.00  0.00     0.131 A
ATOM      7  F   UNL     1      32.220  16.039  -6.630  1.00  0.00    -0.207 F
ATOM      8  C   UNL     1      32.766  14.401  -5.036  1.00  0.00     0.048 A
ENDROOT
BRANCH   1   9
ATOM      9  C   UNL     1      33.400  12.785  -3.231  1.00  0.00     0.010 A
ATOM     10  C   UNL     1      32.153   9.403  -3.361  1.00  0.00     0.091 A
ATOM     11  C   UNL     1      33.129   8.733  -2.648  1.00  0.00     0.140 A
ATOM     12  N   UNL     1      32.233  10.740  -3.530  1.00  0.00    -0.244 NA
ATOM     13  N   UNL     1      34.191   9.370  -2.089  1.00  0.00    -0.252 NA
ATOM     14  C   UNL     1      33.283  11.402  -3.013  1.00  0.00     0.097 A
ATOM     15  C   UNL     1      34.269  10.706  -2.278  1.00  0.00     0.089 A
ATOM     16  C   UNL     1      35.338  11.425  -1.757  1.00  0.00     0.030 A
ATOM     17  C   UNL     1      34.494  13.480  -2.699  1.00  0.00     0.011 A
ATOM     18  C   UNL     1      35.458  12.801  -1.959  1.00  0.00     0.003 A
BRANCH  10  19
ATOM     19  C   UNL     1      31.009   8.802  -4.032  1.00  0.00     0.020 A
ATOM     20  C   UNL     1      29.095   7.660  -5.697  1.00  0.00     0.128 A
ATOM     21  C   UNL     1      29.077   9.029  -5.469  1.00  0.00     0.047 A
ATOM     22  N   UNL     1      29.953   6.855  -5.032  1.00  0.00    -0.239 NA
ATOM     23  C   UNL     1      30.042   9.602  -4.646  1.00  0.00     0.016 A
ATOM     24  C   UNL     1      30.887   7.434  -4.236  1.00  0.00     0.124 A
BRANCH  20  25
ATOM     25  N   UNL     1      28.258   7.113  -6.677  1.00  0.00    -0.349 N
ATOM     26  N   UNL     1      27.252   8.361  -9.214  1.00  0.00    -0.302 NA
ATOM     27  C   UNL     1      28.679   8.061  -8.948  1.00  0.00     0.105 C
ATOM     28  C   UNL     1      26.371   7.725  -8.212  1.00  0.00     0.111 C
ATOM     29  C   UNL     1      28.921   6.888  -7.974  1.00  0.00     0.134 C
ATOM     30  C   UNL     1      26.913   7.775  -6.746  1.00  0.00     0.123 C
ATOM     31  C   UNL     1      26.861   7.980 -10.567  1.00  0.00     0.105 C
ATOM     32  G   UNL     1      25.866   7.071  -5.841  1.00  0.00     0.000 C
ENDBRANCH  20  25
ENDBRANCH  10  19
ENDBRANCH   1   9
BRANCH   5  33
ATOM     33  C   UNL     1      29.420  15.865  -6.138  1.00  0.00     0.126 C
BRANCH  33  34
ATOM     34  N   UNL     1      29.111  17.152  -5.471  1.00  0.00    -0.292 NA
ATOM     35  C   UNL     1      27.821  17.099  -4.772  1.00  0.00     0.101 C
ATOM     36  C   UNL     1      29.256  18.323  -6.376  1.00  0.00     0.098 C
ATOM     37  C   UNL     1      26.615  16.892  -5.670  1.00  0.00     0.152 C
ATOM     38  C   UNL     1      27.973  19.121  -6.641  1.00  0.00     0.158 C
ATOM     39  S   UNL     1      26.601  18.068  -7.000  1.00  0.00     0.153 S
ATOM     40  O   UNL     1      25.397  18.869  -6.866  1.00  0.00    -0.229 OA
ATOM     41  O   UNL     1      26.880  17.359  -8.235  1.00  0.00    -0.229 OA
BRANCH  36  42
ATOM     42  C   UNL     1      30.310  19.297  -5.781  1.00  0.00     0.180 C
BRANCH  42  43
ATOM     43  O   UNL     1      31.498  19.270  -6.581  1.00  0.00    -0.378 OA
BRANCH  43  44
ATOM     44  C   UNL     1      32.726  19.204  -5.842  1.00  0.00     0.186 C
ATOM     45  G   UNL     1      34.025  19.251  -6.691  1.00  0.00     0.000 C
ENDBRANCH  43  44
ENDBRANCH  42  43
ENDBRANCH  36  42
ENDBRANCH  33  34
ENDBRANCH   5  33
TORSDOF 0
ENDMDL
MODEL 2
REMARK VINA RESULT:     -11.2      1.535      2.043
REMARK SMILES CN1CCN2c3ccc(cn3)-c3cnc4cccc(c4n3)-c3cc(F)c(c(F)c3)CN3CCS(=O)(=O)C[C@H]3COC[C@@H]2C1
REMARK SMILES IDX 22 1 23 2 24 3 25 4 26 5 27 6 28 7 29 8 19 9 12 10 13 11
REMARK SMILES IDX 21 12 14 13 20 14 15 15 16 16 18 17 17 18 9 19 6 20 7 21
REMARK SMILES IDX 11 22 8 23 10 24 5 25 2 26 3 27 43 28 4 29 42 30 1 31 30 33
REMARK SMILES IDX 31 34 32 35 38 36 33 37 37 38 34 39 35 40 36 41 39 42 40 43
REMARK SMILES IDX 41 44
REMARK H PARENT
REMARK Flexibility Score:   82.900
ROOT
ATOM      1  C   UNL     1      33.335  13.341  -3.297  1.00  0.00    -0.010 A
ATOM      2  C   UNL     1      33.423  14.735  -3.171  1.00  0.00     0.048 A
ATOM      3  C   UNL     1      32.722  15.568  -4.043  1.00  0.00     0.131 A
ATOM      4  F   UNL     1      32.837  16.896  -3.888  1.00  0.00    -0.207 F
ATOM      5  C   UNL     1      31.911  15.056  -5.056  1.00  0.00     0.038 A
ATOM      6  C   UNL     1      31.806  13.670  -5.157  1.00  0.00     0.131 A
ATOM      7  F   UNL     1      31.028  13.127  -6.104  1.00  0.00    -0.207 F
ATOM      8  C   UNL     1      32.499  12.820  -4.297  1.00  0.00     0.048 A
ENDROOT
BRANCH   1   9
ATOM      9  C   UNL     1      34.191  12.452  -2.488  1.00  0.00     0.010 A
ATOM     10  C   UNL     1      32.524   9.292  -2.987  1.00  0.00     0.091 A
ATOM     11  C   UNL     1      33.351   8.441  -2.282  1.00  0.00     0.140 A
ATOM     12  N   UNL     1      32.790  10.615  -3.033  1.00  0.00    -0.244 NA
ATOM     13  N   UNL     1      34.447   8.880  -1.610  1.00  0.00    -0.252 NA
ATOM     14  C   UNL     1      33.880  11.085  -2.400  1.00  0.00     0.097 A
ATOM     15  C   UNL     1      34.713  10.205  -1.675  1.00  0.00     0.089 A
ATOM     16  C   UNL     1      35.829  10.726  -1.033  1.00  0.00     0.030 A
ATOM     17  C   UNL     1      35.328  12.946  -1.836  1.00  0.00     0.011 A
ATOM     18  C   UNL     1      36.142  12.085  -1.104  1.00  0.00     0.003 A
BRANCH  10  19
ATOM     19  C   UNL     1      31.358   8.909  -3.773  1.00  0.00     0.020 A
ATOM     20  C   UNL     1      29.440   8.115  -5.624  1.00  0.00     0.128 A
ATOM     21  C   UNL     1      29.674   9.467  -5.415  1.00  0.00     0.047 A
ATOM     22  N   UNL     1      30.044   7.179  -4.860  1.00  0.00    -0.239 NA
ATOM     23  C   UNL     1      30.642   9.864  -4.498  1.00  0.00     0.016 A
ATOM     24  C   UNL     1      30.986   7.587  -3.973  1.00  0.00     0.124 A
BRANCH  20  25
ATOM     25  N   UNL     1      28.618   7.713  -6.684  1.00  0.00    -0.349 N
ATOM     26  N   UNL     1      25.834   6.597  -6.600  1.00  0.00    -0.302 NA
ATOM     27  C   UNL     1      26.187   7.973  -6.178  1.00  0.00     0.105 C
ATOM     28  C   UNL     1      26.951   5.948  -7.316  1.00  0.00     0.111 C
ATOM     29  C   UNL     1      27.431   8.564  -6.879  1.00  0.00     0.134 C
ATOM     30  C   UNL     1      28.364   6.234  -6.710  1.00  0.00     0.123 C
ATOM     31  C   UNL     1      24.616   6.572  -7.403  1.00  0.00     0.105 C
ATOM     32  G   UNL     1      29.403   5.476  -7.580  1.00  0.00     0.000 C
ENDBRANCH  20  25
ENDBRANCH  10  19
ENDBRANCH   1   9
BRANCH   5  33
ATOM     33  C   UNL     1      31.163  15.969  -5.986  1.00  0.00     0.126 C
BRANCH  33  34
ATOM     34  N   UNL     1      30.128  16.791  -5.316  1.00  0.00    -0.292 NA
ATOM     35  C   UNL     1      29.049  15.959  -4.772  1.00  0.00     0.101 C
ATOM     36  C   UNL     1      29.651  17.921  -6.157  1.00  0.00     0.098 C
ATOM     37  C   UNL     1      28.245  15.196  -5.810  1.00  0.00     0.152 C
ATOM     38  C   UNL     1      28.166  17.881  -6.541  1.00  0.00     0.158 C
ATOM     39  S   UNL     1      27.666  16.279  -7.092  1.00  0.00     0.153 S
ATOM     40  O   UNL     1      26.215  16.250  -7.070  1.00  0.00    -0.229 OA
ATOM     41  O   UNL     1      28.390  15.968  -8.310  1.00  0.00    -0.229 OA
BRANCH  36  42
ATOM     42  C   UNL     1      29.917  19.258  -5.412  1.00  0.00     0.180 C
BRANCH  42  43
ATOM     43  O   UNL     1      31.145  19.166  -4.681  1.00  0.00    -0.378 OA
BRANCH  43  44
ATOM     44  C   UNL     1      32.156  20.104  -5.074  1.00  0.00     0.186 C
ATOM     45  G   UNL     1      33.445  19.489  -5.683  1.00  0.00     0.000 C
ENDBRANCH  43  44
ENDBRANCH  42  43
ENDBRANCH  36  42
ENDBRANCH  33  34
ENDBRANCH   5  33
TORSDOF 0
ENDMDL
MODEL 3
REMARK VINA RESULT:     -11.1      0.854      1.312
REMARK SMILES CN1CCN2c3ccc(cn3)-c3cnc4cccc(c4n3)-c3cc(F)c(c(F)c3)CN3CCS(=O)(=O)C[C@H]3COC[C@@H]2C1
REMARK SMILES IDX 22 1 23 2 24 3 25 4 26 5 27 6 28 7 29 8 19 9 12 10 13 11
REMARK SMILES IDX 21 12 14 13 20 14 15 15 16 16 18 17 17 18 9 19 6 20 7 21
REMARK SMILES IDX 11 22 8 23 10 24 5 25 2 26 3 27 43 28 4 29 42 30 1 31 30 33
REMARK SMILES IDX 31 34 32 35 38 36 33 37 37 38 34 39 35 40 36 41 39 42 40 43
REMARK SMILES IDX 41 44
REMARK H PARENT
REMARK Flexibility Score:   82.900
ROOT
ATOM      1  C   UNL     1      32.920  13.287  -3.499  1.00  0.00    -0.010 A
ATOM      2  C   UNL     1      33.164  14.662  -3.633  1.00  0.00     0.048 A
ATOM      3  C   UNL     1      32.363  15.443  -4.467  1.00  0.00     0.131 A
ATOM      4  F   UNL     1      32.632  16.754  -4.566  1.00  0.00    -0.207 F
ATOM      5  C   UNL     1      31.300  14.897  -5.186  1.00  0.00     0.038 A
ATOM      6  C   UNL     1      31.046  13.536  -5.027  1.00  0.00     0.131 A
ATOM      7  F   UNL     1      30.026  12.965  -5.683  1.00  0.00    -0.207 F
ATOM      8  C   UNL     1      31.834  12.738  -4.199  1.00  0.00     0.048 A
ENDROOT
BRANCH   1   9
ATOM      9  C   UNL     1      33.851  12.423  -2.749  1.00  0.00     0.010 A
ATOM     10  C   UNL     1      32.294   9.204  -3.222  1.00  0.00     0.091 A
ATOM     11  C   UNL     1      33.190   8.377  -2.573  1.00  0.00     0.140 A
ATOM     12  N   UNL     1      32.502  10.537  -3.257  1.00  0.00    -0.244 NA
ATOM     13  N   UNL     1      34.299   8.852  -1.947  1.00  0.00    -0.252 NA
ATOM     14  C   UNL     1      33.602  11.043  -2.670  1.00  0.00     0.097 A
ATOM     15  C   UNL     1      34.506  10.187  -2.002  1.00  0.00     0.089 A
ATOM     16  C   UNL     1      35.629  10.746  -1.406  1.00  0.00     0.030 A
ATOM     17  C   UNL     1      34.997  12.955  -2.145  1.00  0.00     0.011 A
ATOM     18  C   UNL     1      35.882  12.117  -1.469  1.00  0.00     0.003 A
BRANCH  10  19
ATOM     19  C   UNL     1      31.108   8.784  -3.956  1.00  0.00     0.020 A
ATOM     20  C   UNL     1      29.136   7.933  -5.724  1.00  0.00     0.128 A
ATOM     21  C   UNL     1      29.329   9.292  -5.513  1.00  0.00     0.047 A
ATOM     22  N   UNL     1      29.809   7.014  -4.997  1.00  0.00    -0.239 NA
ATOM     23  C   UNL     1      30.325   9.717  -4.638  1.00  0.00     0.016 A
ATOM     24  C   UNL     1      30.775   7.450  -4.151  1.00  0.00     0.124 A
BRANCH  20  25
ATOM     25  N   UNL     1      28.281   7.509  -6.749  1.00  0.00    -0.349 N
ATOM     26  N   UNL     1      27.459   8.957  -9.245  1.00  0.00    -0.302 NA
ATOM     27  C   UNL     1      28.845   8.519  -8.961  1.00  0.00     0.105 C
ATOM     28  C   UNL     1      26.497   8.358  -8.296  1.00  0.00     0.111 C
ATOM     29  C   UNL     1      28.956   7.285  -8.039  1.00  0.00     0.134 C
ATOM     30  C   UNL     1      27.002   8.293  -6.817  1.00  0.00     0.123 C
ATOM     31  C   UNL     1      27.072   8.676 -10.624  1.00  0.00     0.105 C
ATOM     32  G   UNL     1      25.873   7.645  -5.971  1.00  0.00     0.000 C
ENDBRANCH  20  25
ENDBRANCH  10  19
ENDBRANCH   1   9
BRANCH   5  33
ATOM     33  C   UNL     1      30.448  15.753  -6.080  1.00  0.00     0.126 C
BRANCH  33  34
ATOM     34  N   UNL     1      29.862  16.933  -5.400  1.00  0.00    -0.292 NA
ATOM     35  C   UNL     1      28.632  16.583  -4.679  1.00  0.00     0.101 C
ATOM     36  C   UNL     1      29.717  18.108  -6.299  1.00  0.00     0.098 C
ATOM     37  C   UNL     1      27.490  16.105  -5.557  1.00  0.00     0.152 C
ATOM     38  C   UNL     1      28.280  18.589  -6.538  1.00  0.00     0.158 C
ATOM     39  S   UNL     1      27.181  17.249  -6.880  1.00  0.00     0.153 S
ATOM     40  O   UNL     1      25.828  17.750  -6.720  1.00  0.00    -0.229 OA
ATOM     41  O   UNL     1      27.593  16.626  -8.124  1.00  0.00    -0.229 OA
BRANCH  36  42
ATOM     42  C   UNL     1      30.529  19.298  -5.716  1.00  0.00     0.180 C
BRANCH  42  43
ATOM     43  O   UNL     1      31.654  19.571  -6.558  1.00  0.00    -0.378 OA
BRANCH  43  44
ATOM     44  C   UNL     1      32.887  19.809  -5.864  1.00  0.00     0.186 C
ATOM     45  G   UNL     1      34.167  19.794  -6.742  1.00  0.00     0.000 C
ENDBRANCH  43  44
ENDBRANCH  42  43
ENDBRANCH  36  42
ENDBRANCH  33  34
ENDBRANCH   5  33
TORSDOF 0
ENDMDL
MODEL 4
REMARK VINA RESULT:     -10.9      1.906      3.321
REMARK SMILES CN1CCN2c3ccc(cn3)-c3cnc4cccc(c4n3)-c3cc(F)c(c(F)c3)CN3CCS(=O)(=O)C[C@H]3COC[C@@H]2C1
REMARK SMILES IDX 22 1 23 2 24 3 25 4 26 5 27 6 28 7 29 8 19 9 12 10 13 11
REMARK SMILES IDX 21 12 14 13 20 14 15 15 16 16 18 17 17 18 9 19 6 20 7 21
REMARK SMILES IDX 11 22 8 23 10 24 5 25 2 26 3 27 43 28 4 29 42 30 1 31 30 33
REMARK SMILES IDX 31 34 32 35 38 36 33 37 37 38 34 39 35 40 36 41 39 42 40 43
REMARK SMILES IDX 41 44
REMARK H PARENT
REMARK Flexibility Score:   82.900
ROOT
ATOM      1  C   UNL     1      33.237  13.372  -2.996  1.00  0.00    -0.010 A
ATOM      2  C   UNL     1      33.214  13.536  -4.389  1.00  0.00     0.048 A
ATOM      3  C   UNL     1      32.389  14.498  -4.973  1.00  0.00     0.131 A
ATOM      4  F   UNL     1      32.397  14.619  -6.309  1.00  0.00    -0.207 F
ATOM      5  C   UNL     1      31.572  15.328  -4.206  1.00  0.00     0.038 A
ATOM      6  C   UNL     1      31.621  15.179  -2.822  1.00  0.00     0.131 A
ATOM      7  F   UNL     1      30.866  15.963  -2.038  1.00  0.00    -0.207 F
ATOM      8  C   UNL     1      32.437  14.224  -2.218  1.00  0.00     0.048 A
ENDROOT
BRANCH   1   9
ATOM      9  C   UNL     1      33.980  12.259  -2.377  1.00  0.00     0.010 A
ATOM     10  C   UNL     1      31.950   9.458  -3.399  1.00  0.00     0.091 A
ATOM     11  C   UNL     1      32.670   8.402  -2.874  1.00  0.00     0.140 A
ATOM     12  N   UNL     1      32.371  10.727  -3.213  1.00  0.00    -0.244 NA
ATOM     13  N   UNL     1      33.809   8.582  -2.157  1.00  0.00    -0.252 NA
ATOM     14  C   UNL     1      33.509  10.944  -2.529  1.00  0.00     0.097 A
ATOM     15  C   UNL     1      34.230   9.856  -1.989  1.00  0.00     0.089 A
ATOM     16  C   UNL     1      35.400  10.119  -1.287  1.00  0.00     0.030 A
ATOM     17  C   UNL     1      35.167  12.491  -1.670  1.00  0.00     0.011 A
ATOM     18  C   UNL     1      35.872  11.422  -1.121  1.00  0.00     0.003 A
BRANCH  10  19
ATOM     19  C   UNL     1      30.748   9.361  -4.216  1.00  0.00     0.020 A
ATOM     20  C   UNL     1      28.262   8.967  -5.402  1.00  0.00     0.128 A
ATOM     21  C   UNL     1      29.282   8.052  -5.624  1.00  0.00     0.047 A
ATOM     22  N   UNL     1      28.490  10.109  -4.715  1.00  0.00    -0.239 NA
ATOM     23  C   UNL     1      30.521   8.242  -5.021  1.00  0.00     0.016 A
ATOM     24  C   UNL     1      29.705  10.274  -4.134  1.00  0.00     0.124 A
BRANCH  20  25
ATOM     25  N   UNL     1      26.965   8.674  -5.838  1.00  0.00    -0.349 N
ATOM     26  N   UNL     1      25.880   6.109  -6.954  1.00  0.00    -0.302 NA
ATOM     27  C   UNL     1      26.373   6.264  -5.566  1.00  0.00     0.105 C
ATOM     28  C   UNL     1      25.730   7.417  -7.624  1.00  0.00     0.111 C
ATOM     29  C   UNL     1      26.256   7.694  -4.995  1.00  0.00     0.134 C
ATOM     30  C   UNL     1      26.875   8.438  -7.318  1.00  0.00     0.123 C
ATOM     31  C   UNL     1      24.633   5.351  -7.006  1.00  0.00     0.105 C
ATOM     32  G   UNL     1      26.555   9.740  -8.100  1.00  0.00     0.000 C
ENDBRANCH  20  25
ENDBRANCH  10  19
ENDBRANCH   1   9
BRANCH   5  33
ATOM     33  C   UNL     1      30.690  16.359  -4.852  1.00  0.00     0.126 C
BRANCH  33  34
ATOM     34  N   UNL     1      29.570  15.784  -5.635  1.00  0.00    -0.292 NA
ATOM     35  C   UNL     1      29.439  16.434  -6.945  1.00  0.00     0.101 C
ATOM     36  C   UNL     1      28.298  15.720  -4.866  1.00  0.00     0.098 C
ATOM     37  C   UNL     1      29.085  17.909  -6.893  1.00  0.00     0.152 C
ATOM     38  C   UNL     1      27.143  16.560  -5.423  1.00  0.00     0.158 C
ATOM     39  S   UNL     1      27.662  18.189  -5.869  1.00  0.00     0.153 S
ATOM     40  O   UNL     1      26.622  18.758  -6.707  1.00  0.00    -0.229 OA
ATOM     41  O   UNL     1      28.097  18.875  -4.666  1.00  0.00    -0.229 OA
BRANCH  36  42
ATOM     42  C   UNL     1      27.822  14.242  -4.792  1.00  0.00     0.180 C
BRANCH  42  43
ATOM     43  O   UNL     1      26.840  14.001  -5.806  1.00  0.00    -0.378 OA
BRANCH  43  44
ATOM     44  C   UNL     1      27.251  13.102  -6.846  1.00  0.00     0.186 C
ATOM     45  G   UNL     1      27.267  13.696  -8.281  1.00  0.00     0.000 C
ENDBRANCH  43  44
ENDBRANCH  42  43
ENDBRANCH  36  42
ENDBRANCH  33  34
ENDBRANCH   5  33
TORSDOF 0
ENDMDL
MODEL 5
REMARK VINA RESULT:     -10.9      1.639      1.987
REMARK SMILES CN1CCN2c3ccc(cn3)-c3cnc4cccc(c4n3)-c3cc(F)c(c(F)c3)CN3CCS(=O)(=O)C[C@H]3COC[C@@H]2C1
REMARK SMILES IDX 22 1 23 2 24 3 25 4 26 5 27 6 28 7 29 8 19 9 12 10 13 11
REMARK SMILES IDX 21 12 14 13 20 14 15 15 16 16 18 17 17 18 9 19 6 20 7 21
REMARK SMILES IDX 11 22 8 23 10 24 5 25 2 26 3 27 43 28 4 29 42 30 1 31 30 33
REMARK SMILES IDX 31 34 32 35 38 36 33 37 37 38 34 39 35 40 36 41 39 42 40 43
REMARK SMILES IDX 41 44
REMARK H PARENT
REMARK Flexibility Score:   82.900
ROOT
ATOM      1  C   UNL     1      33.394  13.231  -3.561  1.00  0.00    -0.010 A
ATOM      2  C   UNL     1      32.446  12.667  -4.426  1.00  0.00     0.048 A
ATOM      3  C   UNL     1      31.608  13.485  -5.185  1.00  0.00     0.131 A
ATOM      4  F   UNL     1      30.713  12.903  -5.999  1.00  0.00    -0.207 F
ATOM      5  C   UNL     1      31.684  14.876  -5.120  1.00  0.00     0.038 A
ATOM      6  C   UNL     1      32.648  15.430  -4.280  1.00  0.00     0.131 A
ATOM      7  F   UNL     1      32.773  16.761  -4.193  1.00  0.00    -0.207 F
ATOM      8  C   UNL     1      33.494  14.630  -3.513  1.00  0.00     0.048 A
ENDROOT
BRANCH   1   9
ATOM      9  C   UNL     1      34.175  12.385  -2.638  1.00  0.00     0.010 A
ATOM     10  C   UNL     1      32.438   9.243  -2.991  1.00  0.00     0.091 A
ATOM     11  C   UNL     1      33.198   8.427  -2.175  1.00  0.00     0.140 A
ATOM     12  N   UNL     1      32.749  10.550  -3.122  1.00  0.00    -0.244 NA
ATOM     13  N   UNL     1      34.267   8.887  -1.476  1.00  0.00    -0.252 NA
ATOM     14  C   UNL     1      33.816  11.038  -2.464  1.00  0.00     0.097 A
ATOM     15  C   UNL     1      34.578  10.195  -1.626  1.00  0.00     0.089 A
ATOM     16  C   UNL     1      35.672  10.734  -0.961  1.00  0.00     0.030 A
ATOM     17  C   UNL     1      35.288  12.898  -1.960  1.00  0.00     0.011 A
ATOM     18  C   UNL     1      36.032  12.074  -1.118  1.00  0.00     0.003 A
BRANCH  10  19
ATOM     19  C   UNL     1      31.308   8.831  -3.812  1.00  0.00     0.020 A
ATOM     20  C   UNL     1      29.465   8.007  -5.726  1.00  0.00     0.128 A
ATOM     21  C   UNL     1      29.633   9.362  -5.474  1.00  0.00     0.047 A
ATOM     22  N   UNL     1      30.095   7.077  -4.975  1.00  0.00    -0.239 NA
ATOM     23  C   UNL     1      30.565   9.775  -4.525  1.00  0.00     0.016 A
ATOM     24  C   UNL     1      30.999   7.501  -4.057  1.00  0.00     0.124 A
BRANCH  20  25
ATOM     25  N   UNL     1      28.684   7.600  -6.814  1.00  0.00    -0.349 N
ATOM     26  N   UNL     1      25.821   6.703  -6.856  1.00  0.00    -0.302 NA
ATOM     27  C   UNL     1      26.253   8.073  -6.493  1.00  0.00     0.105 C
ATOM     28  C   UNL     1      26.927   5.927  -7.454  1.00  0.00     0.111 C
ATOM     29  C   UNL     1      27.582   8.523  -7.140  1.00  0.00     0.134 C
ATOM     30  C   UNL     1      28.316   6.145  -6.769  1.00  0.00     0.123 C
ATOM     31  C   UNL     1      24.658   6.717  -7.738  1.00  0.00     0.105 C
ATOM     32  G   UNL     1      29.346   5.258  -7.519  1.00  0.00     0.000 C
ENDBRANCH  20  25
ENDBRANCH  10  19
ENDBRANCH   1   9
BRANCH   5  33
ATOM     33  C   UNL     1      30.774  15.742  -5.945  1.00  0.00     0.126 C
BRANCH  33  34
ATOM     34  N   UNL     1      29.814  16.537  -5.144  1.00  0.00    -0.292 NA
ATOM     35  C   UNL     1      29.053  15.689  -4.218  1.00  0.00     0.101 C
ATOM     36  C   UNL     1      28.964  17.431  -5.976  1.00  0.00     0.098 C
ATOM     37  C   UNL     1      28.157  14.660  -4.883  1.00  0.00     0.152 C
ATOM     38  C   UNL     1      27.459  17.141  -5.937  1.00  0.00     0.158 C
ATOM     39  S   UNL     1      27.110  15.417  -6.101  1.00  0.00     0.153 S
ATOM     40  O   UNL     1      25.734  15.214  -5.686  1.00  0.00    -0.229 OA
ATOM     41  O   UNL     1      27.555  14.984  -7.413  1.00  0.00    -0.229 OA
BRANCH  36  42
ATOM     42  C   UNL     1      29.180  18.902  -5.525  1.00  0.00     0.180 C
BRANCH  42  43
ATOM     43  O   UNL     1      30.030  19.573  -6.463  1.00  0.00    -0.378 OA
BRANCH  43  44
ATOM     44  C   UNL     1      31.117  20.306  -5.879  1.00  0.00     0.186 C
ATOM     45  G   UNL     1      31.582  19.819  -4.481  1.00  0.00     0.000 C
ENDBRANCH  43  44
ENDBRANCH  42  43
ENDBRANCH  36  42
ENDBRANCH  33  34
ENDBRANCH   5  33
TORSDOF 0
ENDMDL
MODEL 6
REMARK VINA RESULT:     -10.8      1.085      1.499
REMARK SMILES CN1CCN2c3ccc(cn3)-c3cnc4cccc(c4n3)-c3cc(F)c(c(F)c3)CN3CCS(=O)(=O)C[C@H]3COC[C@@H]2C1
REMARK SMILES IDX 22 1 23 2 24 3 25 4 26 5 27 6 28 7 29 8 19 9 12 10 13 11
REMARK SMILES IDX 21 12 14 13 20 14 15 15 16 16 18 17 17 18 9 19 6 20 7 21
REMARK SMILES IDX 11 22 8 23 10 24 5 25 2 26 3 27 43 28 4 29 42 30 1 31 30 33
REMARK SMILES IDX 31 34 32 35 38 36 33 37 37 38 34 39 35 40 36 41 39 42 40 43
REMARK SMILES IDX 41 44
REMARK H PARENT
REMARK Flexibility Score:   82.900
ROOT
ATOM      1  C   UNL     1      32.929  13.241  -3.818  1.00  0.00    -0.010 A
ATOM      2  C   UNL     1      31.726  12.712  -4.309  1.00  0.00     0.048 A
ATOM      3  C   UNL     1      30.838  13.520  -5.019  1.00  0.00     0.131 A
ATOM      4  F   UNL     1      29.698  12.974  -5.469  1.00  0.00    -0.207 F
ATOM      5  C   UNL     1      31.109  14.865  -5.271  1.00  0.00     0.038 A
ATOM      6  C   UNL     1      32.318  15.376  -4.805  1.00  0.00     0.131 A
ATOM      7  F   UNL     1      32.635  16.659  -5.034  1.00  0.00    -0.207 F
ATOM      8  C   UNL     1      33.220  14.586  -4.093  1.00  0.00     0.048 A
ENDROOT
BRANCH   1   9
ATOM      9  C   UNL     1      33.800  12.444  -2.933  1.00  0.00     0.010 A
ATOM     10  C   UNL     1      32.244   9.202  -3.214  1.00  0.00     0.091 A
ATOM     11  C   UNL     1      33.088   8.434  -2.436  1.00  0.00     0.140 A
ATOM     12  N   UNL     1      32.468  10.526  -3.356  1.00  0.00    -0.244 NA
ATOM     13  N   UNL     1      34.158   8.959  -1.784  1.00  0.00    -0.252 NA
ATOM     14  C   UNL     1      33.532  11.078  -2.747  1.00  0.00     0.097 A
ATOM     15  C   UNL     1      34.382  10.283  -1.946  1.00  0.00     0.089 A
ATOM     16  C   UNL     1      35.469  10.888  -1.330  1.00  0.00     0.030 A
ATOM     17  C   UNL     1      34.910  13.024  -2.305  1.00  0.00     0.011 A
ATOM     18  C   UNL     1      35.739  12.247  -1.500  1.00  0.00     0.003 A
BRANCH  10  19
ATOM     19  C   UNL     1      31.104   8.722  -3.984  1.00  0.00     0.020 A
ATOM     20  C   UNL     1      29.235   7.764  -5.808  1.00  0.00     0.128 A
ATOM     21  C   UNL     1      29.366   9.132  -5.614  1.00  0.00     0.047 A
ATOM     22  N   UNL     1      29.918   6.884  -5.042  1.00  0.00    -0.239 NA
ATOM     23  C   UNL     1      30.310   9.612  -4.711  1.00  0.00     0.016 A
ATOM     24  C   UNL     1      30.834   7.373  -4.169  1.00  0.00     0.124 A
BRANCH  20  25
ATOM     25  N   UNL     1      28.437   7.289  -6.856  1.00  0.00    -0.349 N
ATOM     26  N   UNL     1      25.628   6.238  -6.766  1.00  0.00    -0.302 NA
ATOM     27  C   UNL     1      25.998   7.637  -6.451  1.00  0.00     0.105 C
ATOM     28  C   UNL     1      26.752   5.509  -7.390  1.00  0.00     0.111 C
ATOM     29  C   UNL     1      27.275   8.143  -7.159  1.00  0.00     0.134 C
ATOM     30  C   UNL     1      28.152   5.818  -6.765  1.00  0.00     0.123 C
ATOM     31  C   UNL     1      24.434   6.168  -7.602  1.00  0.00     0.105 C
ATOM     32  G   UNL     1      29.200   4.970  -7.535  1.00  0.00     0.000 C
ENDBRANCH  20  25
ENDBRANCH  10  19
ENDBRANCH   1   9
BRANCH   5  33
ATOM     33  C   UNL     1      30.141  15.721  -6.037  1.00  0.00     0.126 C
BRANCH  33  34
ATOM     34  N   UNL     1      29.583  16.848  -5.251  1.00  0.00    -0.292 NA
ATOM     35  C   UNL     1      28.295  16.495  -4.644  1.00  0.00     0.101 C
ATOM     36  C   UNL     1      29.560  18.128  -6.009  1.00  0.00     0.098 C
ATOM     37  C   UNL     1      27.182  16.198  -5.633  1.00  0.00     0.152 C
ATOM     38  C   UNL     1      28.170  18.724  -6.263  1.00  0.00     0.158 C
ATOM     39  S   UNL     1      27.018  17.507  -6.822  1.00  0.00     0.153 S
ATOM     40  O   UNL     1      25.689  18.071  -6.674  1.00  0.00    -0.229 OA
ATOM     41  O   UNL     1      27.468  17.009  -8.109  1.00  0.00    -0.229 OA
BRANCH  36  42
ATOM     42  C   UNL     1      30.403  19.186  -5.245  1.00  0.00     0.180 C
BRANCH  42  43
ATOM     43  O   UNL     1      31.261  19.873  -6.163  1.00  0.00    -0.378 OA
BRANCH  43  44
ATOM     44  C   UNL     1      32.630  19.981  -5.747  1.00  0.00     0.186 C
ATOM     45  G   UNL     1      33.678  19.385  -6.725  1.00  0.00     0.000 C
ENDBRANCH  43  44
ENDBRANCH  42  43
ENDBRANCH  36  42
ENDBRANCH  33  34
ENDBRANCH   5  33
TORSDOF 0
ENDMDL
MODEL 7
REMARK VINA RESULT:     -10.8      1.844      3.175
REMARK SMILES CN1CCN2c3ccc(cn3)-c3cnc4cccc(c4n3)-c3cc(F)c(c(F)c3)CN3CCS(=O)(=O)C[C@H]3COC[C@@H]2C1
REMARK SMILES IDX 22 1 23 2 24 3 25 4 26 5 27 6 28 7 29 8 19 9 12 10 13 11
REMARK SMILES IDX 21 12 14 13 20 14 15 15 16 16 18 17 17 18 9 19 6 20 7 21
REMARK SMILES IDX 11 22 8 23 10 24 5 25 2 26 3 27 43 28 4 29 42 30 1 31 30 33
REMARK SMILES IDX 31 34 32 35 38 36 33 37 37 38 34 39 35 40 36 41 39 42 40 43
REMARK SMILES IDX 41 44
REMARK H PARENT
REMARK Flexibility Score:   82.900
ROOT
ATOM      1  C   UNL     1      33.022  13.290  -3.076  1.00  0.00    -0.010 A
ATOM      2  C   UNL     1      32.229  14.211  -2.378  1.00  0.00     0.048 A
ATOM      3  C   UNL     1      31.432  15.123  -3.070  1.00  0.00     0.131 A
ATOM      4  F   UNL     1      30.690  15.989  -2.363  1.00  0.00    -0.207 F
ATOM      5  C   UNL     1      31.387  15.150  -4.464  1.00  0.00     0.038 A
ATOM      6  C   UNL     1      32.156  14.213  -5.151  1.00  0.00     0.131 A
ATOM      7  F   UNL     1      32.138  14.186  -6.491  1.00  0.00    -0.207 F
ATOM      8  C   UNL     1      32.960  13.294  -4.479  1.00  0.00     0.048 A
ENDROOT
BRANCH   1   9
ATOM      9  C   UNL     1      33.986  12.429  -2.365  1.00  0.00     0.010 A
ATOM     10  C   UNL     1      32.560   9.176  -2.991  1.00  0.00     0.091 A
ATOM     11  C   UNL     1      33.488   8.356  -2.379  1.00  0.00     0.140 A
ATOM     12  N   UNL     1      32.714  10.517  -2.964  1.00  0.00    -0.244 NA
ATOM     13  N   UNL     1      34.576   8.846  -1.729  1.00  0.00    -0.252 NA
ATOM     14  C   UNL     1      33.792  11.038  -2.351  1.00  0.00     0.097 A
ATOM     15  C   UNL     1      34.729  10.189  -1.721  1.00  0.00     0.089 A
ATOM     16  C   UNL     1      35.829  10.764  -1.096  1.00  0.00     0.030 A
ATOM     17  C   UNL     1      35.110  12.977  -1.733  1.00  0.00     0.011 A
ATOM     18  C   UNL     1      36.026  12.146  -1.095  1.00  0.00     0.003 A
BRANCH  10  19
ATOM     19  C   UNL     1      31.393   8.743  -3.747  1.00  0.00     0.020 A
ATOM     20  C   UNL     1      29.463   7.870  -5.551  1.00  0.00     0.128 A
ATOM     21  C   UNL     1      29.643   9.230  -5.344  1.00  0.00     0.047 A
ATOM     22  N   UNL     1      30.128   6.959  -4.806  1.00  0.00    -0.239 NA
ATOM     23  C   UNL     1      30.617   9.668  -4.451  1.00  0.00     0.016 A
ATOM     24  C   UNL     1      31.074   7.407  -3.942  1.00  0.00     0.124 A
BRANCH  20  25
ATOM     25  N   UNL     1      28.633   7.434  -6.591  1.00  0.00    -0.349 N
ATOM     26  N   UNL     1      25.856   6.306  -6.446  1.00  0.00    -0.302 NA
ATOM     27  C   UNL     1      26.206   7.695  -6.066  1.00  0.00     0.105 C
ATOM     28  C   UNL     1      26.969   5.643  -7.157  1.00  0.00     0.111 C
ATOM     29  C   UNL     1      27.438   8.273  -6.796  1.00  0.00     0.134 C
ATOM     30  C   UNL     1      28.387   5.954  -6.574  1.00  0.00     0.123 C
ATOM     31  C   UNL     1      24.629   6.252  -7.235  1.00  0.00     0.105 C
ATOM     32  G   UNL     1      29.421   5.178  -7.434  1.00  0.00     0.000 C
ENDBRANCH  20  25
ENDBRANCH  10  19
ENDBRANCH   1   9
BRANCH   5  33
ATOM     33  C   UNL     1      30.523  16.140  -5.194  1.00  0.00     0.126 C
BRANCH  33  34
ATOM     34  N   UNL     1      29.354  15.530  -5.872  1.00  0.00    -0.292 NA
ATOM     35  C   UNL     1      29.039  16.222  -7.127  1.00  0.00     0.101 C
ATOM     36  C   UNL     1      28.184  15.360  -4.969  1.00  0.00     0.098 C
ATOM     37  C   UNL     1      28.613  17.670  -6.970  1.00  0.00     0.152 C
ATOM     38  C   UNL     1      26.928  16.152  -5.355  1.00  0.00     0.158 C
ATOM     39  S   UNL     1      27.303  17.824  -5.781  1.00  0.00     0.153 S
ATOM     40  O   UNL     1      26.145  18.363  -6.471  1.00  0.00    -0.229 OA
ATOM     41  O   UNL     1      27.834  18.488  -4.605  1.00  0.00    -0.229 OA
BRANCH  36  42
ATOM     42  C   UNL     1      27.802  13.856  -4.910  1.00  0.00     0.180 C
BRANCH  42  43
ATOM     43  O   UNL     1      26.651  13.618  -5.729  1.00  0.00    -0.378 OA
BRANCH  43  44
ATOM     44  C   UNL     1      26.914  12.929  -6.959  1.00  0.00     0.186 C
ATOM     45  G   UNL     1      25.989  13.300  -8.149  1.00  0.00     0.000 C
ENDBRANCH  43  44
ENDBRANCH  42  43
ENDBRANCH  36  42
ENDBRANCH  33  34
ENDBRANCH   5  33
TORSDOF 0
ENDMDL
MODEL 8
REMARK VINA RESULT:     -10.8      1.387      1.772
REMARK SMILES CN1CCN2c3ccc(cn3)-c3cnc4cccc(c4n3)-c3cc(F)c(c(F)c3)CN3CCS(=O)(=O)C[C@H]3COC[C@@H]2C1
REMARK SMILES IDX 22 1 23 2 24 3 25 4 26 5 27 6 28 7 29 8 19 9 12 10 13 11
REMARK SMILES IDX 21 12 14 13 20 14 15 15 16 16 18 17 17 18 9 19 6 20 7 21
REMARK SMILES IDX 11 22 8 23 10 24 5 25 2 26 3 27 43 28 4 29 42 30 1 31 30 33
REMARK SMILES IDX 31 34 32 35 38 36 33 37 37 38 34 39 35 40 36 41 39 42 40 43
REMARK SMILES IDX 41 44
REMARK H PARENT
REMARK Flexibility Score:   82.900
ROOT
ATOM      1  C   UNL     1      33.086  13.292  -3.412  1.00  0.00    -0.010 A
ATOM      2  C   UNL     1      33.299  14.675  -3.499  1.00  0.00     0.048 A
ATOM      3  C   UNL     1      32.533  15.453  -4.368  1.00  0.00     0.131 A
ATOM      4  F   UNL     1      32.771  16.773  -4.421  1.00  0.00    -0.207 F
ATOM      5  C   UNL     1      31.535  14.896  -5.168  1.00  0.00     0.038 A
ATOM      6  C   UNL     1      31.311  13.526  -5.055  1.00  0.00     0.131 A
ATOM      7  F   UNL     1      30.353  12.943  -5.790  1.00  0.00    -0.207 F
ATOM      8  C   UNL     1      32.065  12.730  -4.194  1.00  0.00     0.048 A
ENDROOT
BRANCH   1   9
ATOM      9  C   UNL     1      33.990  12.435  -2.621  1.00  0.00     0.010 A
ATOM     10  C   UNL     1      32.415   9.221  -3.064  1.00  0.00     0.091 A
ATOM     11  C   UNL     1      33.287   8.400  -2.375  1.00  0.00     0.140 A
ATOM     12  N   UNL     1      32.636  10.551  -3.122  1.00  0.00    -0.244 NA
ATOM     13  N   UNL     1      34.383   8.879  -1.732  1.00  0.00    -0.252 NA
ATOM     14  C   UNL     1      33.725  11.059  -2.519  1.00  0.00     0.097 A
ATOM     15  C   UNL     1      34.604  10.210  -1.810  1.00  0.00     0.089 A
ATOM     16  C   UNL     1      35.718  10.772  -1.197  1.00  0.00     0.030 A
ATOM     17  C   UNL     1      35.125  12.970  -1.998  1.00  0.00     0.011 A
ATOM     18  C   UNL     1      35.984  12.139  -1.283  1.00  0.00     0.003 A
BRANCH  10  19
ATOM     19  C   UNL     1      31.244   8.795  -3.819  1.00  0.00     0.020 A
ATOM     20  C   UNL     1      29.297   7.982  -5.632  1.00  0.00     0.128 A
ATOM     21  C   UNL     1      29.417   9.328  -5.312  1.00  0.00     0.047 A
ATOM     22  N   UNL     1      30.030   7.046  -4.990  1.00  0.00    -0.239 NA
ATOM     23  C   UNL     1      30.400   9.736  -4.414  1.00  0.00     0.016 A
ATOM     24  C   UNL     1      30.983   7.466  -4.120  1.00  0.00     0.124 A
BRANCH  20  25
ATOM     25  N   UNL     1      28.452   7.596  -6.680  1.00  0.00    -0.349 N
ATOM     26  N   UNL     1      26.195   9.113  -7.946  1.00  0.00    -0.302 NA
ATOM     27  C   UNL     1      27.614   9.533  -8.014  1.00  0.00     0.105 C
ATOM     28  C   UNL     1      26.062   7.736  -7.429  1.00  0.00     0.111 C
ATOM     29  C   UNL     1      28.634   8.377  -7.916  1.00  0.00     0.134 C
ATOM     30  C   UNL     1      27.029   7.390  -6.250  1.00  0.00     0.123 C
ATOM     31  C   UNL     1      25.527   9.252  -9.237  1.00  0.00     0.105 C
ATOM     32  G   UNL     1      26.749   5.919  -5.838  1.00  0.00     0.000 C
ENDBRANCH  20  25
ENDBRANCH  10  19
ENDBRANCH   1   9
BRANCH   5  33
ATOM     33  C   UNL     1      30.720  15.750  -6.098  1.00  0.00     0.126 C
BRANCH  33  34
ATOM     34  N   UNL     1      29.791  16.674  -5.404  1.00  0.00    -0.292 NA
ATOM     35  C   UNL     1      28.608  15.968  -4.898  1.00  0.00     0.101 C
ATOM     36  C   UNL     1      29.471  17.884  -6.207  1.00  0.00     0.098 C
ATOM     37  C   UNL     1      27.726  15.351  -5.968  1.00  0.00     0.152 C
ATOM     38  C   UNL     1      27.998  18.048  -6.602  1.00  0.00     0.158 C
ATOM     39  S   UNL     1      27.303  16.544  -7.213  1.00  0.00     0.153 S
ATOM     40  O   UNL     1      25.860  16.700  -7.202  1.00  0.00    -0.229 OA
ATOM     41  O   UNL     1      27.996  16.186  -8.438  1.00  0.00    -0.229 OA
BRANCH  36  42
ATOM     42  C   UNL     1      29.897  19.149  -5.412  1.00  0.00     0.180 C
BRANCH  42  43
ATOM     43  O   UNL     1      29.099  20.266  -5.820  1.00  0.00    -0.378 OA
BRANCH  43  44
ATOM     44  C   UNL     1      29.841  21.419  -6.243  1.00  0.00     0.186 C
ATOM     45  G   UNL     1      31.355  21.409  -5.898  1.00  0.00     0.000 C
ENDBRANCH  43  44
ENDBRANCH  42  43
ENDBRANCH  36  42
ENDBRANCH  33  34
ENDBRANCH   5  33
TORSDOF 0
ENDMDL
MODEL 9
REMARK VINA RESULT:     -10.8      1.587      2.808
REMARK SMILES CN1CCN2c3ccc(cn3)-c3cnc4cccc(c4n3)-c3cc(F)c(c(F)c3)CN3CCS(=O)(=O)C[C@H]3COC[C@@H]2C1
REMARK SMILES IDX 22 1 23 2 24 3 25 4 26 5 27 6 28 7 29 8 19 9 12 10 13 11
REMARK SMILES IDX 21 12 14 13 20 14 15 15 16 16 18 17 17 18 9 19 6 20 7 21
REMARK SMILES IDX 11 22 8 23 10 24 5 25 2 26 3 27 43 28 4 29 42 30 1 31 30 33
REMARK SMILES IDX 31 34 32 35 38 36 33 37 37 38 34 39 35 40 36 41 39 42 40 43
REMARK SMILES IDX 41 44
REMARK H PARENT
REMARK Flexibility Score:   82.900
ROOT
ATOM      1  C   UNL     1      33.002  13.330  -3.079  1.00  0.00    -0.010 A
ATOM      2  C   UNL     1      32.199  14.226  -2.358  1.00  0.00     0.048 A
ATOM      3  C   UNL     1      31.389  15.144  -3.027  1.00  0.00     0.131 A
ATOM      4  F   UNL     1      30.639  15.984  -2.298  1.00  0.00    -0.207 F
ATOM      5  C   UNL     1      31.341  15.203  -4.420  1.00  0.00     0.038 A
ATOM      6  C   UNL     1      32.120  14.292  -5.130  1.00  0.00     0.131 A
ATOM      7  F   UNL     1      32.098  14.296  -6.471  1.00  0.00    -0.207 F
ATOM      8  C   UNL     1      32.936  13.366  -4.481  1.00  0.00     0.048 A
ENDROOT
BRANCH   1   9
ATOM      9  C   UNL     1      33.978  12.465  -2.390  1.00  0.00     0.010 A
ATOM     10  C   UNL     1      32.505   9.221  -2.957  1.00  0.00     0.091 A
ATOM     11  C   UNL     1      33.443   8.397  -2.366  1.00  0.00     0.140 A
ATOM     12  N   UNL     1      32.673  10.561  -2.942  1.00  0.00    -0.244 NA
ATOM     13  N   UNL     1      34.553   8.880  -1.750  1.00  0.00    -0.252 NA
ATOM     14  C   UNL     1      33.772  11.076  -2.363  1.00  0.00     0.097 A
ATOM     15  C   UNL     1      34.719  10.222  -1.754  1.00  0.00     0.089 A
ATOM     16  C   UNL     1      35.841  10.790  -1.164  1.00  0.00     0.030 A
ATOM     17  C   UNL     1      35.124  13.007  -1.793  1.00  0.00     0.011 A
ATOM     18  C   UNL     1      36.050  12.170  -1.176  1.00  0.00     0.003 A
BRANCH  10  19
ATOM     19  C   UNL     1      31.313   8.795  -3.677  1.00  0.00     0.020 A
ATOM     20  C   UNL     1      29.318   7.970  -5.431  1.00  0.00     0.128 A
ATOM     21  C   UNL     1      29.461   9.319  -5.141  1.00  0.00     0.047 A
ATOM     22  N   UNL     1      30.055   7.038  -4.786  1.00  0.00    -0.239 NA
ATOM     23  C   UNL     1      30.467   9.734  -4.273  1.00  0.00     0.016 A
ATOM     24  C   UNL     1      31.031   7.463  -3.946  1.00  0.00     0.124 A
BRANCH  20  25
ATOM     25  N   UNL     1      28.446   7.572  -6.452  1.00  0.00    -0.349 N
ATOM     26  N   UNL     1      27.826   8.944  -9.048  1.00  0.00    -0.302 NA
ATOM     27  C   UNL     1      29.155   8.388  -8.703  1.00  0.00     0.105 C
ATOM     28  C   UNL     1      26.790   8.501  -8.092  1.00  0.00     0.111 C
ATOM     29  C   UNL     1      29.122   7.206  -7.709  1.00  0.00     0.134 C
ATOM     30  C   UNL     1      27.254   8.473  -6.599  1.00  0.00     0.123 C
ATOM     31  C   UNL     1      27.442   8.621 -10.418  1.00  0.00     0.105 C
ATOM     32  G   UNL     1      26.048   7.991  -5.748  1.00  0.00     0.000 C
ENDBRANCH  20  25
ENDBRANCH  10  19
ENDBRANCH   1   9
BRANCH   5  33
ATOM     33  C   UNL     1      30.463  16.199  -5.124  1.00  0.00     0.126 C
BRANCH  33  34
ATOM     34  N   UNL     1      29.228  15.611  -5.695  1.00  0.00    -0.292 NA
ATOM     35  C   UNL     1      29.001  16.067  -7.071  1.00  0.00     0.101 C
ATOM     36  C   UNL     1      28.046  15.772  -4.806  1.00  0.00     0.098 C
ATOM     37  C   UNL     1      28.758  17.558  -7.219  1.00  0.00     0.152 C
ATOM     38  C   UNL     1      26.898  16.615  -5.374  1.00  0.00     0.158 C
ATOM     39  S   UNL     1      27.477  18.108  -6.118  1.00  0.00     0.153 S
ATOM     40  O   UNL     1      26.395  18.633  -6.931  1.00  0.00    -0.229 OA
ATOM     41  O   UNL     1      28.087  18.927  -5.086  1.00  0.00    -0.229 OA
BRANCH  36  42
ATOM     42  C   UNL     1      27.480  14.368  -4.455  1.00  0.00     0.180 C
BRANCH  42  43
ATOM     43  O   UNL     1      26.257  14.150  -5.167  1.00  0.00    -0.378 OA
BRANCH  43  44
ATOM     44  C   UNL     1      26.346  13.217  -6.254  1.00  0.00     0.186 C
ATOM     45  G   UNL     1      27.609  12.315  -6.264  1.00  0.00     0.000 C
ENDBRANCH  43  44
ENDBRANCH  42  43
ENDBRANCH  36  42
ENDBRANCH  33  34
ENDBRANCH   5  33
TORSDOF 0
ENDMDL
