MODEL 1
REMARK VINA RESULT:     -10.7      0.000      0.000
REMARK SMILES Fc1cc2cc(F)c1CN1CCOC[C@H]1COCC1(CCNCC1)n1cc(cn1)-c1cnc3cccc-2c3n1
REMARK SMILES IDX 1 1 2 2 3 3 4 4 5 5 6 6 7 7 8 8 9 9 10 10 11 11 15 12 12 13
REMARK SMILES IDX 14 14 13 15 16 16 17 17 18 18 37 20 36 21 38 22 35 23 39 24
REMARK SMILES IDX 33 25 34 26 30 27 32 28 31 29 27 30 26 31 28 32 25 33 29 34
REMARK SMILES IDX 19 35 20 36 24 37 21 38 23 39 22 40
REMARK H PARENT 22 41
REMARK Flexibility Score:   78.900
ROOT
ATOM      1  F   UNL     1      32.768  15.827  -5.716  1.00  0.00    -0.207 F
ATOM      2  C   UNL     1      32.589  15.357  -4.473  1.00  0.00     0.131 A
ATOM      3  C   UNL     1      33.395  14.305  -4.039  1.00  0.00     0.048 A
ATOM      4  C   UNL     1      33.219  13.756  -2.762  1.00  0.00    -0.010 A
ATOM      5  C   UNL     1      32.258  14.330  -1.919  1.00  0.00     0.048 A
ATOM      6  C   UNL     1      31.460  15.382  -2.372  1.00  0.00     0.131 A
ATOM      7  F   UNL     1      30.546  15.891  -1.533  1.00  0.00    -0.207 F
ATOM      8  C   UNL     1      31.580  15.887  -3.669  1.00  0.00     0.038 A
ENDROOT
BRANCH   8   9
ATOM      9  C   UNL     1      30.657  16.958  -4.189  1.00  0.00     0.126 C
BRANCH   9  10
ATOM     10  N   UNL     1      30.665  17.105  -5.662  1.00  0.00    -0.289 NA
ATOM     11  C   UNL     1      29.438  16.496  -6.243  1.00  0.00     0.114 C
ATOM     12  C   UNL     1      30.789  18.504  -6.162  1.00  0.00     0.108 C
ATOM     13  C   UNL     1      28.418  17.488  -6.831  1.00  0.00     0.175 C
ATOM     14  C   UNL     1      29.524  19.363  -5.894  1.00  0.00     0.181 C
ATOM     15  O   UNL     1      28.289  18.634  -5.992  1.00  0.00    -0.378 OA
BRANCH  12  16
ATOM     16  C   UNL     1      32.053  19.274  -5.727  1.00  0.00     0.181 C
BRANCH  16  17
ATOM     17  O   UNL     1      32.715  19.933  -6.816  1.00  0.00    -0.377 OA
BRANCH  17  18
ATOM     18  C   UNL     1      34.135  19.742  -6.834  1.00  0.00     0.191 C
ATOM     19  G   UNL     1      34.507  18.229  -6.735  1.00  0.00     0.000 C
ENDBRANCH  17  18
ENDBRANCH  16  17
ENDBRANCH  12  16
ENDBRANCH   9  10
ENDBRANCH   8   9
BRANCH   4  20
ATOM     20  C   UNL     1      33.968  12.557  -2.353  1.00  0.00     0.010 A
ATOM     21  C   UNL     1      35.211  12.689  -1.716  1.00  0.00     0.011 A
ATOM     22  C   UNL     1      33.447  11.276  -2.620  1.00  0.00     0.097 A
ATOM     23  C   UNL     1      35.935  11.560  -1.353  1.00  0.00     0.003 A
ATOM     24  N   UNL     1      32.243  11.139  -3.220  1.00  0.00    -0.244 NA
ATOM     25  C   UNL     1      34.195  10.129  -2.260  1.00  0.00     0.089 A
ATOM     26  C   UNL     1      35.423  10.293  -1.632  1.00  0.00     0.030 A
ATOM     27  C   UNL     1      31.793   9.889  -3.481  1.00  0.00     0.092 A
ATOM     28  N   UNL     1      33.746   8.881  -2.515  1.00  0.00    -0.252 NA
ATOM     29  C   UNL     1      32.542   8.782  -3.133  1.00  0.00     0.140 A
BRANCH  27  30
ATOM     30  C   UNL     1      30.508   9.809  -4.141  1.00  0.00     0.040 A
ATOM     31  C   UNL     1      30.175   8.809  -5.031  1.00  0.00     0.119 A
ATOM     32  C   UNL     1      29.347  10.601  -4.080  1.00  0.00     0.145 A
ATOM     33  N   UNL     1      28.863   8.979  -5.368  1.00  0.00    -0.264 N
ATOM     34  N   UNL     1      28.359  10.127  -4.846  1.00  0.00    -0.180 NA
BRANCH  33  35
ATOM     35  C   UNL     1      28.021   8.134  -6.251  1.00  0.00     0.088 C
ATOM     36  C   UNL     1      27.926   8.775  -7.665  1.00  0.00     0.048 C
ATOM     37  C   UNL     1      28.679   6.730  -6.322  1.00  0.00     0.048 C
ATOM     38  C   UNL     1      28.938   8.160  -8.626  1.00  0.00     0.083 C
ATOM     39  C   UNL     1      28.325   6.003  -7.614  1.00  0.00     0.083 C
ATOM     40  N   UNL     1      28.692   6.730  -8.826  1.00  0.00    -0.317 NA
ATOM     41  H   UNL     1      29.520   6.313  -9.251  1.00  0.00     0.122 HD
ATOM     42  G   UNL     1      26.573   7.985  -5.688  1.00  0.00     0.000 C
ENDBRANCH  33  35
ENDBRANCH  27  30
ENDBRANCH   4  20
TORSDOF 0
ENDMDL
MODEL 2
REMARK VINA RESULT:     -10.6      0.968      1.930
REMARK SMILES Fc1cc2cc(F)c1CN1CCOC[C@H]1COCC1(CCNCC1)n1cc(cn1)-c1cnc3cccc-2c3n1
REMARK SMILES IDX 1 1 2 2 3 3 4 4 5 5 6 6 7 7 8 8 9 9 10 10 11 11 15 12 12 13
REMARK SMILES IDX 14 14 13 15 16 16 17 17 18 18 37 20 36 21 38 22 35 23 39 24
REMARK SMILES IDX 33 25 34 26 30 27 32 28 31 29 27 30 26 31 28 32 25 33 29 34
REMARK SMILES IDX 19 35 20 36 24 37 21 38 23 39 22 40
REMARK H PARENT 22 41
REMARK Flexibility Score:   78.900
ROOT
ATOM      1  F   UNL     1      30.462  16.242  -1.794  1.00  0.00    -0.207 F
ATOM      2  C   UNL     1      31.246  15.625  -2.690  1.00  0.00     0.131 A
ATOM      3  C   UNL     1      31.918  14.468  -2.298  1.00  0.00     0.048 A
ATOM      4  C   UNL     1      32.778  13.811  -3.188  1.00  0.00    -0.010 A
ATOM      5  C   UNL     1      32.896  14.314  -4.491  1.00  0.00     0.048 A
ATOM      6  C   UNL     1      32.216  15.475  -4.864  1.00  0.00     0.131 A
ATOM      7  F   UNL     1      32.369  15.923  -6.118  1.00  0.00    -0.207 F
ATOM      8  C   UNL     1      31.414  16.176  -3.961  1.00  0.00     0.038 A
ENDROOT
BRANCH   8   9
ATOM      9  C   UNL     1      30.755  17.478  -4.333  1.00  0.00     0.126 C
BRANCH   9  10
ATOM     10  N   UNL     1      30.523  17.649  -5.785  1.00  0.00    -0.289 NA
ATOM     11  C   UNL     1      29.189  17.106  -6.157  1.00  0.00     0.114 C
ATOM     12  C   UNL     1      30.627  19.049  -6.287  1.00  0.00     0.108 C
ATOM     13  C   UNL     1      28.132  18.152  -6.556  1.00  0.00     0.175 C
ATOM     14  C   UNL     1      29.467  19.960  -5.802  1.00  0.00     0.181 C
ATOM     15  O   UNL     1      28.200  19.289  -5.697  1.00  0.00    -0.378 OA
BRANCH  12  16
ATOM     16  C   UNL     1      31.980  19.755  -6.064  1.00  0.00     0.181 C
BRANCH  16  17
ATOM     17  O   UNL     1      32.913  19.537  -7.132  1.00  0.00    -0.377 OA
BRANCH  17  18
ATOM     18  C   UNL     1      34.273  19.405  -6.698  1.00  0.00     0.191 C
ATOM     19  G   UNL     1      34.715  17.908  -6.662  1.00  0.00     0.000 C
ENDBRANCH  17  18
ENDBRANCH  16  17
ENDBRANCH  12  16
ENDBRANCH   9  10
ENDBRANCH   8   9
BRANCH   4  20
ATOM     20  C   UNL     1      33.596  12.674  -2.737  1.00  0.00     0.010 A
ATOM     21  C   UNL     1      34.842  12.903  -2.133  1.00  0.00     0.011 A
ATOM     22  C   UNL     1      33.138  11.356  -2.928  1.00  0.00     0.097 A
ATOM     23  C   UNL     1      35.630  11.832  -1.730  1.00  0.00     0.003 A
ATOM     24  N   UNL     1      31.932  11.128  -3.495  1.00  0.00    -0.244 NA
ATOM     25  C   UNL     1      33.951  10.269  -2.527  1.00  0.00     0.089 A
ATOM     26  C   UNL     1      35.180  10.528  -1.934  1.00  0.00     0.030 A
ATOM     27  C   UNL     1      31.543   9.845  -3.683  1.00  0.00     0.092 A
ATOM     28  N   UNL     1      33.563   8.989  -2.710  1.00  0.00    -0.252 NA
ATOM     29  C   UNL     1      32.355   8.797  -3.297  1.00  0.00     0.140 A
BRANCH  27  30
ATOM     30  C   UNL     1      30.252   9.665  -4.312  1.00  0.00     0.040 A
ATOM     31  C   UNL     1      29.929   8.565  -5.077  1.00  0.00     0.119 A
ATOM     32  C   UNL     1      29.076  10.437  -4.325  1.00  0.00     0.145 A
ATOM     33  N   UNL     1      28.610   8.670  -5.412  1.00  0.00    -0.264 N
ATOM     34  N   UNL     1      28.088   9.861  -5.017  1.00  0.00    -0.180 NA
BRANCH  33  35
ATOM     35  C   UNL     1      27.775   7.714  -6.182  1.00  0.00     0.088 C
ATOM     36  C   UNL     1      28.343   6.274  -6.035  1.00  0.00     0.048 C
ATOM     37  C   UNL     1      26.329   7.800  -5.622  1.00  0.00     0.048 C
ATOM     38  C   UNL     1      27.615   5.495  -4.946  1.00  0.00     0.083 C
ATOM     39  C   UNL     1      25.559   6.504  -5.845  1.00  0.00     0.083 C
ATOM     40  N   UNL     1      26.195   5.325  -5.264  1.00  0.00    -0.317 NA
ATOM     41  H   UNL     1      25.703   5.040  -4.416  1.00  0.00     0.122 HD
ATOM     42  G   UNL     1      27.749   8.073  -7.702  1.00  0.00     0.000 C
ENDBRANCH  33  35
ENDBRANCH  27  30
ENDBRANCH   4  20
TORSDOF 0
ENDMDL
MODEL 3
REMARK VINA RESULT:     -10.5      1.030      1.478
REMARK SMILES Fc1cc2cc(F)c1CN1CCOC[C@H]1COCC1(CCNCC1)n1cc(cn1)-c1cnc3cccc-2c3n1
REMARK SMILES IDX 1 1 2 2 3 3 4 4 5 5 6 6 7 7 8 8 9 9 10 10 11 11 15 12 12 13
REMARK SMILES IDX 14 14 13 15 16 16 17 17 18 18 37 20 36 21 38 22 35 23 39 24
REMARK SMILES IDX 33 25 34 26 30 27 32 28 31 29 27 30 26 31 28 32 25 33 29 34
REMARK SMILES IDX 19 35 20 36 24 37 21 38 23 39 22 40
REMARK H PARENT 22 41
REMARK Flexibility Score:   78.900
ROOT
ATOM      1  F   UNL     1      33.320  16.387  -5.405  1.00  0.00    -0.207 F
ATOM      2  C   UNL     1      32.941  15.750  -4.288  1.00  0.00     0.131 A
ATOM      3  C   UNL     1      33.698  14.662  -3.855  1.00  0.00     0.048 A
ATOM      4  C   UNL     1      33.318  13.942  -2.714  1.00  0.00    -0.010 A
ATOM      5  C   UNL     1      32.198  14.381  -1.995  1.00  0.00     0.048 A
ATOM      6  C   UNL     1      31.452  15.471  -2.446  1.00  0.00     0.131 A
ATOM      7  F   UNL     1      30.382  15.846  -1.730  1.00  0.00    -0.207 F
ATOM      8  C   UNL     1      31.782  16.149  -3.621  1.00  0.00     0.038 A
ENDROOT
BRANCH   8   9
ATOM      9  C   UNL     1      30.925  17.265  -4.159  1.00  0.00     0.126 C
BRANCH   9  10
ATOM     10  N   UNL     1      30.324  16.987  -5.482  1.00  0.00    -0.289 NA
ATOM     11  C   UNL     1      29.570  15.705  -5.442  1.00  0.00     0.114 C
ATOM     12  C   UNL     1      29.426  18.054  -6.012  1.00  0.00     0.108 C
ATOM     13  C   UNL     1      28.038  15.831  -5.531  1.00  0.00     0.175 C
ATOM     14  C   UNL     1      28.095  18.181  -5.222  1.00  0.00     0.181 C
ATOM     15  O   UNL     1      27.577  16.928  -4.744  1.00  0.00    -0.378 OA
BRANCH  12  16
ATOM     16  C   UNL     1      30.061  19.447  -6.201  1.00  0.00     0.181 C
BRANCH  16  17
ATOM     17  O   UNL     1      31.418  19.391  -6.664  1.00  0.00    -0.377 OA
BRANCH  17  18
ATOM     18  C   UNL     1      32.302  20.292  -5.986  1.00  0.00     0.191 C
ATOM     19  G   UNL     1      33.720  19.665  -5.800  1.00  0.00     0.000 C
ENDBRANCH  17  18
ENDBRANCH  16  17
ENDBRANCH  12  16
ENDBRANCH   9  10
ENDBRANCH   8   9
BRANCH   4  20
ATOM     20  C   UNL     1      34.030  12.712  -2.335  1.00  0.00     0.010 A
ATOM     21  C   UNL     1      35.281  12.791  -1.704  1.00  0.00     0.011 A
ATOM     22  C   UNL     1      33.465  11.454  -2.623  1.00  0.00     0.097 A
ATOM     23  C   UNL     1      35.969  11.632  -1.369  1.00  0.00     0.003 A
ATOM     24  N   UNL     1      32.254  11.368  -3.217  1.00  0.00    -0.244 NA
ATOM     25  C   UNL     1      34.178  10.276  -2.290  1.00  0.00     0.089 A
ATOM     26  C   UNL     1      35.414  10.388  -1.668  1.00  0.00     0.030 A
ATOM     27  C   UNL     1      31.761  10.139  -3.498  1.00  0.00     0.092 A
ATOM     28  N   UNL     1      33.687   9.049  -2.567  1.00  0.00    -0.252 NA
ATOM     29  C   UNL     1      32.476   9.002  -3.178  1.00  0.00     0.140 A
BRANCH  27  30
ATOM     30  C   UNL     1      30.470  10.114  -4.150  1.00  0.00     0.040 A
ATOM     31  C   UNL     1      30.069   9.101  -4.996  1.00  0.00     0.119 A
ATOM     32  C   UNL     1      29.362  10.980  -4.120  1.00  0.00     0.145 A
ATOM     33  N   UNL     1      28.769   9.341  -5.336  1.00  0.00    -0.264 N
ATOM     34  N   UNL     1      28.342  10.540  -4.862  1.00  0.00    -0.180 NA
BRANCH  33  35
ATOM     35  C   UNL     1      27.869   8.515  -6.181  1.00  0.00     0.088 C
ATOM     36  C   UNL     1      28.580   7.190  -6.576  1.00  0.00     0.048 C
ATOM     37  C   UNL     1      26.585   8.230  -5.357  1.00  0.00     0.048 C
ATOM     38  C   UNL     1      28.186   6.046  -5.649  1.00  0.00     0.083 C
ATOM     39  C   UNL     1      25.900   6.943  -5.802  1.00  0.00     0.083 C
ATOM     40  N   UNL     1      26.752   5.759  -5.727  1.00  0.00    -0.317 NA
ATOM     41  H   UNL     1      26.490   5.186  -4.924  1.00  0.00     0.122 HD
ATOM     42  G   UNL     1      27.472   9.263  -7.492  1.00  0.00     0.000 C
ENDBRANCH  33  35
ENDBRANCH  27  30
ENDBRANCH   4  20
TORSDOF 0
ENDMDL
MODEL 4
REMARK VINA RESULT:     -10.4      1.769      3.189
REMARK SMILES Fc1cc2cc(F)c1CN1CCOC[C@H]1COCC1(CCNCC1)n1cc(cn1)-c1cnc3cccc-2c3n1
REMARK SMILES IDX 1 1 2 2 3 3 4 4 5 5 6 6 7 7 8 8 9 9 10 10 11 11 15 12 12 13
REMARK SMILES IDX 14 14 13 15 16 16 17 17 18 18 37 20 36 21 38 22 35 23 39 24
REMARK SMILES IDX 33 25 34 26 30 27 32 28 31 29 27 30 26 31 28 32 25 33 29 34
REMARK SMILES IDX 19 35 20 36 24 37 21 38 23 39 22 40
REMARK H PARENT 22 41
REMARK Flexibility Score:   78.900
ROOT
ATOM      1  F   UNL     1      32.305  15.114  -6.450  1.00  0.00    -0.207 F
ATOM      2  C   UNL     1      32.267  14.913  -5.125  1.00  0.00     0.131 A
ATOM      3  C   UNL     1      33.063  13.904  -4.584  1.00  0.00     0.048 A
ATOM      4  C   UNL     1      33.028  13.633  -3.210  1.00  0.00    -0.010 A
ATOM      5  C   UNL     1      32.221  14.437  -2.395  1.00  0.00     0.048 A
ATOM      6  C   UNL     1      31.429  15.441  -2.955  1.00  0.00     0.131 A
ATOM      7  F   UNL     1      30.665  16.176  -2.135  1.00  0.00    -0.207 F
ATOM      8  C   UNL     1      31.404  15.670  -4.333  1.00  0.00     0.038 A
ENDROOT
BRANCH   8   9
ATOM      9  C   UNL     1      30.481  16.689  -4.948  1.00  0.00     0.126 C
BRANCH   9  10
ATOM     10  N   UNL     1      29.042  16.382  -4.786  1.00  0.00    -0.289 NA
ATOM     11  C   UNL     1      28.279  17.632  -4.520  1.00  0.00     0.114 C
ATOM     12  C   UNL     1      28.409  15.670  -5.933  1.00  0.00     0.108 C
ATOM     13  C   UNL     1      27.354  18.101  -5.657  1.00  0.00     0.175 C
ATOM     14  C   UNL     1      28.272  16.555  -7.201  1.00  0.00     0.181 C
ATOM     15  O   UNL     1      27.989  17.937  -6.923  1.00  0.00    -0.378 OA
BRANCH  12  16
ATOM     16  C   UNL     1      29.019  14.303  -6.307  1.00  0.00     0.181 C
BRANCH  16  17
ATOM     17  O   UNL     1      28.147  13.200  -6.024  1.00  0.00    -0.377 OA
BRANCH  17  18
ATOM     18  C   UNL     1      26.928  13.213  -6.779  1.00  0.00     0.191 C
ATOM     19  G   UNL     1      26.796  11.935  -7.666  1.00  0.00     0.000 C
ENDBRANCH  17  18
ENDBRANCH  16  17
ENDBRANCH  12  16
ENDBRANCH   9  10
ENDBRANCH   8   9
BRANCH   4  20
ATOM     20  C   UNL     1      33.758  12.481  -2.656  1.00  0.00     0.010 A
ATOM     21  C   UNL     1      34.975  12.677  -1.987  1.00  0.00     0.011 A
ATOM     22  C   UNL     1      33.244  11.179  -2.816  1.00  0.00     0.097 A
ATOM     23  C   UNL     1      35.681  11.590  -1.486  1.00  0.00     0.003 A
ATOM     24  N   UNL     1      32.065  10.982  -3.447  1.00  0.00    -0.244 NA
ATOM     25  C   UNL     1      33.975  10.074  -2.316  1.00  0.00     0.089 A
ATOM     26  C   UNL     1      35.177  10.301  -1.659  1.00  0.00     0.030 A
ATOM     27  C   UNL     1      31.622   9.712  -3.601  1.00  0.00     0.092 A
ATOM     28  N   UNL     1      33.533   8.807  -2.465  1.00  0.00    -0.252 NA
ATOM     29  C   UNL     1      32.354   8.646  -3.117  1.00  0.00     0.140 A
BRANCH  27  30
ATOM     30  C   UNL     1      30.363   9.566  -4.300  1.00  0.00     0.040 A
ATOM     31  C   UNL     1      30.094   8.524  -5.163  1.00  0.00     0.119 A
ATOM     32  C   UNL     1      29.177  10.321  -4.308  1.00  0.00     0.145 A
ATOM     33  N   UNL     1      28.790   8.639  -5.550  1.00  0.00    -0.264 N
ATOM     34  N   UNL     1      28.231   9.788  -5.088  1.00  0.00    -0.180 NA
BRANCH  33  35
ATOM     35  C   UNL     1      28.006   7.735  -6.429  1.00  0.00     0.088 C
ATOM     36  C   UNL     1      28.085   6.276  -5.897  1.00  0.00     0.048 C
ATOM     37  C   UNL     1      26.539   8.244  -6.435  1.00  0.00     0.048 C
ATOM     38  C   UNL     1      26.873   5.926  -5.042  1.00  0.00     0.083 C
ATOM     39  C   UNL     1      25.552   7.123  -6.739  1.00  0.00     0.083 C
ATOM     40  N   UNL     1      25.631   5.994  -5.816  1.00  0.00    -0.317 NA
ATOM     41  H   UNL     1      24.843   6.012  -5.168  1.00  0.00     0.122 HD
ATOM     42  G   UNL     1      28.550   7.748  -7.892  1.00  0.00     0.000 C
ENDBRANCH  33  35
ENDBRANCH  27  30
ENDBRANCH   4  20
TORSDOF 0
ENDMDL
MODEL 5
REMARK VINA RESULT:     -10.3      1.184      1.650
REMARK SMILES Fc1cc2cc(F)c1CN1CCOC[C@H]1COCC1(CCNCC1)n1cc(cn1)-c1cnc3cccc-2c3n1
REMARK SMILES IDX 1 1 2 2 3 3 4 4 5 5 6 6 7 7 8 8 9 9 10 10 11 11 15 12 12 13
REMARK SMILES IDX 14 14 13 15 16 16 17 17 18 18 37 20 36 21 38 22 35 23 39 24
REMARK SMILES IDX 33 25 34 26 30 27 32 28 31 29 27 30 26 31 28 32 25 33 29 34
REMARK SMILES IDX 19 35 20 36 24 37 21 38 23 39 22 40
REMARK H PARENT 22 41
REMARK Flexibility Score:   78.900
ROOT
ATOM      1  F   UNL     1      30.885  14.948  -6.308  1.00  0.00    -0.207 F
ATOM      2  C   UNL     1      31.308  14.919  -5.036  1.00  0.00     0.131 A
ATOM      3  C   UNL     1      32.178  13.899  -4.651  1.00  0.00     0.048 A
ATOM      4  C   UNL     1      32.617  13.806  -3.323  1.00  0.00    -0.010 A
ATOM      5  C   UNL     1      32.206  14.792  -2.417  1.00  0.00     0.048 A
ATOM      6  C   UNL     1      31.333  15.803  -2.822  1.00  0.00     0.131 A
ATOM      7  F   UNL     1      30.959  16.717  -1.915  1.00  0.00    -0.207 F
ATOM      8  C   UNL     1      30.834  15.862  -4.125  1.00  0.00     0.038 A
ENDROOT
BRANCH   8   9
ATOM      9  C   UNL     1      29.820  16.897  -4.538  1.00  0.00     0.126 C
BRANCH   9  10
ATOM     10  N   UNL     1      29.882  17.271  -5.968  1.00  0.00    -0.289 NA
ATOM     11  C   UNL     1      28.520  17.236  -6.566  1.00  0.00     0.114 C
ATOM     12  C   UNL     1      30.495  18.600  -6.253  1.00  0.00     0.108 C
ATOM     13  C   UNL     1      27.919  18.605  -6.934  1.00  0.00     0.175 C
ATOM     14  C   UNL     1      29.618  19.792  -5.783  1.00  0.00     0.181 C
ATOM     15  O   UNL     1      28.204  19.569  -5.922  1.00  0.00    -0.378 OA
BRANCH  12  16
ATOM     16  C   UNL     1      31.950  18.796  -5.777  1.00  0.00     0.181 C
BRANCH  16  17
ATOM     17  O   UNL     1      32.663  19.783  -6.534  1.00  0.00    -0.377 OA
BRANCH  17  18
ATOM     18  C   UNL     1      34.010  19.409  -6.855  1.00  0.00     0.191 C
ATOM     19  G   UNL     1      34.189  17.858  -6.836  1.00  0.00     0.000 C
ENDBRANCH  17  18
ENDBRANCH  16  17
ENDBRANCH  12  16
ENDBRANCH   9  10
ENDBRANCH   8   9
BRANCH   4  20
ATOM     20  C   UNL     1      33.419  12.654  -2.880  1.00  0.00     0.010 A
ATOM     21  C   UNL     1      34.670  12.861  -2.278  1.00  0.00     0.011 A
ATOM     22  C   UNL     1      32.942  11.344  -3.079  1.00  0.00     0.097 A
ATOM     23  C   UNL     1      35.443  11.777  -1.883  1.00  0.00     0.003 A
ATOM     24  N   UNL     1      31.732  11.137  -3.645  1.00  0.00    -0.244 NA
ATOM     25  C   UNL     1      33.741  10.243  -2.686  1.00  0.00     0.089 A
ATOM     26  C   UNL     1      34.974  10.481  -2.094  1.00  0.00     0.030 A
ATOM     27  C   UNL     1      31.324   9.861  -3.840  1.00  0.00     0.092 A
ATOM     28  N   UNL     1      33.334   8.970  -2.877  1.00  0.00    -0.252 NA
ATOM     29  C   UNL     1      32.122   8.799  -3.463  1.00  0.00     0.140 A
BRANCH  27  30
ATOM     30  C   UNL     1      30.029   9.704  -4.467  1.00  0.00     0.040 A
ATOM     31  C   UNL     1      29.712   8.647  -5.294  1.00  0.00     0.119 A
ATOM     32  C   UNL     1      28.844  10.460  -4.424  1.00  0.00     0.145 A
ATOM     33  N   UNL     1      28.389   8.757  -5.611  1.00  0.00    -0.264 N
ATOM     34  N   UNL     1      27.857   9.915  -5.141  1.00  0.00    -0.180 NA
BRANCH  33  35
ATOM     35  C   UNL     1      27.557   7.838  -6.429  1.00  0.00     0.088 C
ATOM     36  C   UNL     1      26.738   6.896  -5.502  1.00  0.00     0.048 C
ATOM     37  C   UNL     1      26.616   8.711  -7.303  1.00  0.00     0.048 C
ATOM     38  C   UNL     1      25.323   7.420  -5.283  1.00  0.00     0.083 C
ATOM     39  C   UNL     1      25.342   7.966  -7.681  1.00  0.00     0.083 C
ATOM     40  N   UNL     1      24.572   7.484  -6.538  1.00  0.00    -0.317 NA
ATOM     41  H   UNL     1      23.748   8.070  -6.396  1.00  0.00     0.122 HD
ATOM     42  G   UNL     1      28.437   6.952  -7.366  1.00  0.00     0.000 C
ENDBRANCH  33  35
ENDBRANCH  27  30
ENDBRANCH   4  20
TORSDOF 0
ENDMDL
MODEL 6
REMARK VINA RESULT:     -10.3      1.580      2.076
REMARK SMILES Fc1cc2cc(F)c1CN1CCOC[C@H]1COCC1(CCNCC1)n1cc(cn1)-c1cnc3cccc-2c3n1
REMARK SMILES IDX 1 1 2 2 3 3 4 4 5 5 6 6 7 7 8 8 9 9 10 10 11 11 15 12 12 13
REMARK SMILES IDX 14 14 13 15 16 16 17 17 18 18 37 20 36 21 38 22 35 23 39 24
REMARK SMILES IDX 33 25 34 26 30 27 32 28 31 29 27 30 26 31 28 32 25 33 29 34
REMARK SMILES IDX 19 35 20 36 24 37 21 38 23 39 22 40
REMARK H PARENT 22 41
REMARK Flexibility Score:   78.900
ROOT
ATOM      1  F   UNL     1      29.040  14.063  -4.636  1.00  0.00    -0.207 F
ATOM      2  C   UNL     1      30.296  14.343  -4.258  1.00  0.00     0.131 A
ATOM      3  C   UNL     1      31.134  13.284  -3.910  1.00  0.00     0.048 A
ATOM      4  C   UNL     1      32.443  13.530  -3.472  1.00  0.00    -0.010 A
ATOM      5  C   UNL     1      32.898  14.855  -3.452  1.00  0.00     0.048 A
ATOM      6  C   UNL     1      32.043  15.901  -3.803  1.00  0.00     0.131 A
ATOM      7  F   UNL     1      32.521  17.153  -3.757  1.00  0.00    -0.207 F
ATOM      8  C   UNL     1      30.716  15.670  -4.171  1.00  0.00     0.038 A
ENDROOT
BRANCH   8   9
ATOM      9  C   UNL     1      29.766  16.803  -4.459  1.00  0.00     0.126 C
BRANCH   9  10
ATOM     10  N   UNL     1      29.453  16.984  -5.894  1.00  0.00    -0.289 NA
ATOM     11  C   UNL     1      27.979  16.995  -6.099  1.00  0.00     0.114 C
ATOM     12  C   UNL     1      30.032  18.206  -6.523  1.00  0.00     0.108 C
ATOM     13  C   UNL     1      27.372  18.354  -6.494  1.00  0.00     0.175 C
ATOM     14  C   UNL     1      29.379  19.521  -6.020  1.00  0.00     0.181 C
ATOM     15  O   UNL     1      27.972  19.410  -5.747  1.00  0.00    -0.378 OA
BRANCH  12  16
ATOM     16  C   UNL     1      31.569  18.330  -6.482  1.00  0.00     0.181 C
BRANCH  16  17
ATOM     17  O   UNL     1      32.243  17.204  -7.061  1.00  0.00    -0.377 OA
BRANCH  17  18
ATOM     18  C   UNL     1      33.653  17.396  -7.237  1.00  0.00     0.191 C
ATOM     19  G   UNL     1      34.196  18.514  -6.291  1.00  0.00     0.000 C
ENDBRANCH  17  18
ENDBRANCH  16  17
ENDBRANCH  12  16
ENDBRANCH   9  10
ENDBRANCH   8   9
BRANCH   4  20
ATOM     20  C   UNL     1      33.282  12.431  -2.970  1.00  0.00     0.010 A
ATOM     21  C   UNL     1      34.502  12.713  -2.337  1.00  0.00     0.011 A
ATOM     22  C   UNL     1      32.872  11.095  -3.143  1.00  0.00     0.097 A
ATOM     23  C   UNL     1      35.312  11.678  -1.886  1.00  0.00     0.003 A
ATOM     24  N   UNL     1      31.691  10.815  -3.739  1.00  0.00    -0.244 NA
ATOM     25  C   UNL     1      33.707  10.044  -2.693  1.00  0.00     0.089 A
ATOM     26  C   UNL     1      34.909  10.355  -2.071  1.00  0.00     0.030 A
ATOM     27  C   UNL     1      31.348   9.516  -3.908  1.00  0.00     0.092 A
ATOM     28  N   UNL     1      33.365   8.748  -2.857  1.00  0.00    -0.252 NA
ATOM     29  C   UNL     1      32.181   8.504  -3.473  1.00  0.00     0.140 A
BRANCH  27  30
ATOM     30  C   UNL     1      30.082   9.281  -4.568  1.00  0.00     0.040 A
ATOM     31  C   UNL     1      29.773   8.102  -5.213  1.00  0.00     0.119 A
ATOM     32  C   UNL     1      28.922  10.061  -4.725  1.00  0.00     0.145 A
ATOM     33  N   UNL     1      28.471   8.185  -5.618  1.00  0.00    -0.264 N
ATOM     34  N   UNL     1      27.955   9.420  -5.389  1.00  0.00    -0.180 NA
BRANCH  33  35
ATOM     35  C   UNL     1      27.653   7.156  -6.307  1.00  0.00     0.088 C
ATOM     36  C   UNL     1      27.829   5.779  -5.605  1.00  0.00     0.048 C
ATOM     37  C   UNL     1      26.173   7.621  -6.251  1.00  0.00     0.048 C
ATOM     38  C   UNL     1      26.703   5.510  -4.613  1.00  0.00     0.083 C
ATOM     39  C   UNL     1      25.206   6.444  -6.328  1.00  0.00     0.083 C
ATOM     40  N   UNL     1      25.401   5.445  -5.281  1.00  0.00    -0.317 NA
ATOM     41  H   UNL     1      24.668   5.526  -4.575  1.00  0.00     0.122 HD
ATOM     42  G   UNL     1      28.076   6.996  -7.801  1.00  0.00     0.000 C
ENDBRANCH  33  35
ENDBRANCH  27  30
ENDBRANCH   4  20
TORSDOF 0
ENDMDL
MODEL 7
REMARK VINA RESULT:     -10.3      2.266      4.049
REMARK SMILES Fc1cc2cc(F)c1CN1CCOC[C@H]1COCC1(CCNCC1)n1cc(cn1)-c1cnc3cccc-2c3n1
REMARK SMILES IDX 1 1 2 2 3 3 4 4 5 5 6 6 7 7 8 8 9 9 10 10 11 11 15 12 12 13
REMARK SMILES IDX 14 14 13 15 16 16 17 17 18 18 37 20 36 21 38 22 35 23 39 24
REMARK SMILES IDX 33 25 34 26 30 27 32 28 31 29 27 30 26 31 28 32 25 33 29 34
REMARK SMILES IDX 19 35 20 36 24 37 21 38 23 39 22 40
REMARK H PARENT 22 41
REMARK Flexibility Score:   78.900
ROOT
ATOM      1  F   UNL     1      31.244  16.481  -2.199  1.00  0.00    -0.207 F
ATOM      2  C   UNL     1      31.707  15.676  -3.167  1.00  0.00     0.131 A
ATOM      3  C   UNL     1      31.826  14.314  -2.896  1.00  0.00     0.048 A
ATOM      4  C   UNL     1      32.340  13.440  -3.863  1.00  0.00    -0.010 A
ATOM      5  C   UNL     1      32.673  13.962  -5.120  1.00  0.00     0.048 A
ATOM      6  C   UNL     1      32.548  15.330  -5.372  1.00  0.00     0.131 A
ATOM      7  F   UNL     1      32.890  15.784  -6.586  1.00  0.00    -0.207 F
ATOM      8  C   UNL     1      32.104  16.218  -4.389  1.00  0.00     0.038 A
ENDROOT
BRANCH   8   9
ATOM      9  C   UNL     1      32.059  17.704  -4.629  1.00  0.00     0.126 C
BRANCH   9  10
ATOM     10  N   UNL     1      31.510  18.091  -5.948  1.00  0.00    -0.289 NA
ATOM     11  C   UNL     1      30.092  17.656  -6.060  1.00  0.00     0.114 C
ATOM     12  C   UNL     1      31.591  19.544  -6.271  1.00  0.00     0.108 C
ATOM     13  C   UNL     1      29.046  18.786  -6.054  1.00  0.00     0.175 C
ATOM     14  C   UNL     1      30.640  20.417  -5.408  1.00  0.00     0.181 C
ATOM     15  O   UNL     1      29.388  19.783  -5.093  1.00  0.00    -0.378 OA
BRANCH  12  16
ATOM     16  C   UNL     1      33.005  20.162  -6.286  1.00  0.00     0.181 C
BRANCH  16  17
ATOM     17  O   UNL     1      33.342  20.830  -5.063  1.00  0.00    -0.377 OA
BRANCH  17  18
ATOM     18  C   UNL     1      34.091  22.039  -5.247  1.00  0.00     0.191 C
ATOM     19  G   UNL     1      35.185  21.867  -6.348  1.00  0.00     0.000 C
ENDBRANCH  17  18
ENDBRANCH  16  17
ENDBRANCH  12  16
ENDBRANCH   9  10
ENDBRANCH   8   9
BRANCH   4  20
ATOM     20  C   UNL     1      32.599  12.029  -3.535  1.00  0.00     0.010 A
ATOM     21  C   UNL     1      33.765  11.674  -2.839  1.00  0.00     0.011 A
ATOM     22  C   UNL     1      31.688  11.033  -3.937  1.00  0.00     0.097 A
ATOM     23  C   UNL     1      34.028  10.340  -2.550  1.00  0.00     0.003 A
ATOM     24  N   UNL     1      30.556  11.368  -4.595  1.00  0.00    -0.244 NA
ATOM     25  C   UNL     1      31.968   9.675  -3.651  1.00  0.00     0.089 A
ATOM     26  C   UNL     1      33.130   9.355  -2.962  1.00  0.00     0.030 A
ATOM     27  C   UNL     1      29.721  10.376  -4.985  1.00  0.00     0.092 A
ATOM     28  N   UNL     1      31.135   8.684  -4.036  1.00  0.00    -0.252 NA
ATOM     29  C   UNL     1      30.017   9.055  -4.709  1.00  0.00     0.140 A
BRANCH  27  30
ATOM     30  C   UNL     1      28.536  10.797  -5.701  1.00  0.00     0.040 A
ATOM     31  C   UNL     1      28.082  12.099  -5.715  1.00  0.00     0.119 A
ATOM     32  C   UNL     1      27.611  10.113  -6.510  1.00  0.00     0.145 A
ATOM     33  N   UNL     1      27.020  12.154  -6.571  1.00  0.00    -0.264 N
ATOM     34  N   UNL     1      26.670  10.918  -7.013  1.00  0.00    -0.180 NA
BRANCH  33  35
ATOM     35  C   UNL     1      26.220  13.338  -6.972  1.00  0.00     0.088 C
ATOM     36  C   UNL     1      25.409  13.867  -5.755  1.00  0.00     0.048 C
ATOM     37  C   UNL     1      27.207  14.417  -7.492  1.00  0.00     0.048 C
ATOM     38  C   UNL     1      26.126  15.021  -5.066  1.00  0.00     0.083 C
ATOM     39  C   UNL     1      26.643  15.824  -7.333  1.00  0.00     0.083 C
ATOM     40  N   UNL     1      26.284  16.170  -5.961  1.00  0.00    -0.317 NA
ATOM     41  H   UNL     1      26.979  16.801  -5.562  1.00  0.00     0.122 HD
ATOM     42  G   UNL     1      25.212  12.986  -8.112  1.00  0.00     0.000 C
ENDBRANCH  33  35
ENDBRANCH  27  30
ENDBRANCH   4  20
TORSDOF 0
ENDMDL
MODEL 8
REMARK VINA RESULT:     -10.3      1.122      1.603
REMARK SMILES Fc1cc2cc(F)c1CN1CCOC[C@H]1COCC1(CCNCC1)n1cc(cn1)-c1cnc3cccc-2c3n1
REMARK SMILES IDX 1 1 2 2 3 3 4 4 5 5 6 6 7 7 8 8 9 9 10 10 11 11 15 12 12 13
REMARK SMILES IDX 14 14 13 15 16 16 17 17 18 18 37 20 36 21 38 22 35 23 39 24
REMARK SMILES IDX 33 25 34 26 30 27 32 28 31 29 27 30 26 31 28 32 25 33 29 34
REMARK SMILES IDX 19 35 20 36 24 37 21 38 23 39 22 40
REMARK H PARENT 22 41
REMARK Flexibility Score:   78.900
ROOT
ATOM      1  F   UNL     1      33.966  16.748  -4.697  1.00  0.00    -0.207 F
ATOM      2  C   UNL     1      33.319  15.861  -3.927  1.00  0.00     0.131 A
ATOM      3  C   UNL     1      34.030  14.766  -3.436  1.00  0.00     0.048 A
ATOM      4  C   UNL     1      33.386  13.793  -2.660  1.00  0.00    -0.010 A
ATOM      5  C   UNL     1      32.034  13.982  -2.345  1.00  0.00     0.048 A
ATOM      6  C   UNL     1      31.339  15.083  -2.848  1.00  0.00     0.131 A
ATOM      7  F   UNL     1      30.044  15.214  -2.529  1.00  0.00    -0.207 F
ATOM      8  C   UNL     1      31.955  16.019  -3.682  1.00  0.00     0.038 A
ENDROOT
BRANCH   8   9
ATOM      9  C   UNL     1      31.183  17.156  -4.301  1.00  0.00     0.126 C
BRANCH   9  10
ATOM     10  N   UNL     1      30.979  17.028  -5.761  1.00  0.00    -0.289 NA
ATOM     11  C   UNL     1      30.199  15.798  -6.063  1.00  0.00     0.114 C
ATOM     12  C   UNL     1      30.313  18.190  -6.415  1.00  0.00     0.108 C
ATOM     13  C   UNL     1      28.764  16.027  -6.569  1.00  0.00     0.175 C
ATOM     14  C   UNL     1      28.816  18.334  -6.027  1.00  0.00     0.181 C
ATOM     15  O   UNL     1      28.136  17.081  -5.842  1.00  0.00    -0.378 OA
BRANCH  12  16
ATOM     16  C   UNL     1      31.026  19.551  -6.279  1.00  0.00     0.181 C
BRANCH  16  17
ATOM     17  O   UNL     1      32.414  19.499  -6.637  1.00  0.00    -0.377 OA
BRANCH  17  18
ATOM     18  C   UNL     1      33.280  20.161  -5.706  1.00  0.00     0.191 C
ATOM     19  G   UNL     1      34.468  20.864  -6.436  1.00  0.00     0.000 C
ENDBRANCH  17  18
ENDBRANCH  16  17
ENDBRANCH  12  16
ENDBRANCH   9  10
ENDBRANCH   8   9
BRANCH   4  20
ATOM     20  C   UNL     1      34.095  12.568  -2.258  1.00  0.00     0.010 A
ATOM     21  C   UNL     1      35.327  12.656  -1.591  1.00  0.00     0.011 A
ATOM     22  C   UNL     1      33.549  11.306  -2.562  1.00  0.00     0.097 A
ATOM     23  C   UNL     1      36.013  11.502  -1.235  1.00  0.00     0.003 A
ATOM     24  N   UNL     1      32.356  11.211  -3.192  1.00  0.00    -0.244 NA
ATOM     25  C   UNL     1      34.259  10.133  -2.208  1.00  0.00     0.089 A
ATOM     26  C   UNL     1      35.476  10.254  -1.550  1.00  0.00     0.030 A
ATOM     27  C   UNL     1      31.880   9.979  -3.487  1.00  0.00     0.092 A
ATOM     28  N   UNL     1      33.785   8.903  -2.498  1.00  0.00    -0.252 NA
ATOM     29  C   UNL     1      32.594   8.846  -3.145  1.00  0.00     0.140 A
BRANCH  27  30
ATOM     30  C   UNL     1      30.609   9.944  -4.177  1.00  0.00     0.040 A
ATOM     31  C   UNL     1      30.298   9.010  -5.142  1.00  0.00     0.119 A
ATOM     32  C   UNL     1      29.445  10.728  -4.085  1.00  0.00     0.145 A
ATOM     33  N   UNL     1      28.992   9.202  -5.493  1.00  0.00    -0.264 N
ATOM     34  N   UNL     1      28.474  10.309  -4.902  1.00  0.00    -0.180 NA
BRANCH  33  35
ATOM     35  C   UNL     1      28.170   8.421  -6.451  1.00  0.00     0.088 C
ATOM     36  C   UNL     1      27.414   7.287  -5.701  1.00  0.00     0.048 C
ATOM     37  C   UNL     1      27.173   9.403  -7.122  1.00  0.00     0.048 C
ATOM     38  C   UNL     1      25.989   7.702  -5.355  1.00  0.00     0.083 C
ATOM     39  C   UNL     1      25.915   8.691  -7.606  1.00  0.00     0.083 C
ATOM     40  N   UNL     1      25.198   7.971  -6.558  1.00  0.00    -0.317 NA
ATOM     41  H   UNL     1      24.358   8.484  -6.288  1.00  0.00     0.122 HD
ATOM     42  G   UNL     1      29.053   7.764  -7.559  1.00  0.00     0.000 C
ENDBRANCH  33  35
ENDBRANCH  27  30
ENDBRANCH   4  20
TORSDOF 0
ENDMDL
MODEL 9
REMARK VINA RESULT:     -10.2      1.381      1.715
REMARK SMILES Fc1cc2cc(F)c1CN1CCOC[C@H]1COCC1(CCNCC1)n1cc(cn1)-c1cnc3cccc-2c3n1
REMARK SMILES IDX 1 1 2 2 3 3 4 4 5 5 6 6 7 7 8 8 9 9 10 10 11 11 15 12 12 13
REMARK SMILES IDX 14 14 13 15 16 16 17 17 18 18 37 20 36 21 38 22 35 23 39 24
REMARK SMILES IDX 33 25 34 26 30 27 32 28 31 29 27 30 26 31 28 32 25 33 29 34
REMARK SMILES IDX 19 35 20 36 24 37 21 38 23 39 22 40
REMARK H PARENT 22 41
REMARK Flexibility Score:   78.900
ROOT
ATOM      1  F   UNL     1      30.186  13.109  -5.878  1.00  0.00    -0.207 F
ATOM      2  C   UNL     1      30.944  13.651  -4.915  1.00  0.00     0.131 A
ATOM      3  C   UNL     1      31.965  12.878  -4.361  1.00  0.00     0.048 A
ATOM      4  C   UNL     1      32.759  13.389  -3.326  1.00  0.00    -0.010 A
ATOM      5  C   UNL     1      32.537  14.708  -2.908  1.00  0.00     0.048 A
ATOM      6  C   UNL     1      31.510  15.465  -3.473  1.00  0.00     0.131 A
ATOM      7  F   UNL     1      31.329  16.718  -3.032  1.00  0.00    -0.207 F
ATOM      8  C   UNL     1      30.668  14.938  -4.455  1.00  0.00     0.038 A
ENDROOT
BRANCH   8   9
ATOM      9  C   UNL     1      29.500  15.721  -4.999  1.00  0.00     0.126 C
BRANCH   9  10
ATOM     10  N   UNL     1      29.688  16.210  -6.383  1.00  0.00    -0.289 NA
ATOM     11  C   UNL     1      28.601  15.696  -7.259  1.00  0.00     0.114 C
ATOM     12  C   UNL     1      29.762  17.692  -6.530  1.00  0.00     0.108 C
ATOM     13  C   UNL     1      27.589  16.747  -7.749  1.00  0.00     0.175 C
ATOM     14  C   UNL     1      28.407  18.401  -6.261  1.00  0.00     0.181 C
ATOM     15  O   UNL     1      27.258  17.656  -6.700  1.00  0.00    -0.378 OA
BRANCH  12  16
ATOM     16  C   UNL     1      30.890  18.400  -5.752  1.00  0.00     0.181 C
BRANCH  16  17
ATOM     17  O   UNL     1      31.772  19.153  -6.597  1.00  0.00    -0.377 OA
BRANCH  17  18
ATOM     18  C   UNL     1      32.841  19.799  -5.893  1.00  0.00     0.191 C
ATOM     19  G   UNL     1      34.153  19.808  -6.738  1.00  0.00     0.000 C
ENDBRANCH  17  18
ENDBRANCH  16  17
ENDBRANCH  12  16
ENDBRANCH   9  10
ENDBRANCH   8   9
BRANCH   4  20
ATOM     20  C   UNL     1      33.741  12.531  -2.644  1.00  0.00     0.010 A
ATOM     21  C   UNL     1      34.845  13.106  -1.997  1.00  0.00     0.011 A
ATOM     22  C   UNL     1      33.584  11.132  -2.658  1.00  0.00     0.097 A
ATOM     23  C   UNL     1      35.790  12.299  -1.375  1.00  0.00     0.003 A
ATOM     24  N   UNL     1      32.515  10.570  -3.266  1.00  0.00    -0.244 NA
ATOM     25  C   UNL     1      34.557  10.314  -2.033  1.00  0.00     0.089 A
ATOM     26  C   UNL     1      35.639  10.913  -1.403  1.00  0.00     0.030 A
ATOM     27  C   UNL     1      32.417   9.220  -3.277  1.00  0.00     0.092 A
ATOM     28  N   UNL     1      34.459   8.967  -2.040  1.00  0.00    -0.252 NA
ATOM     29  C   UNL     1      33.383   8.438  -2.674  1.00  0.00     0.140 A
BRANCH  27  30
ATOM     30  C   UNL     1      31.262   8.679  -3.959  1.00  0.00     0.040 A
ATOM     31  C   UNL     1      30.293   9.464  -4.546  1.00  0.00     0.119 A
ATOM     32  C   UNL     1      30.829   7.366  -4.219  1.00  0.00     0.145 A
ATOM     33  N   UNL     1      29.422   8.631  -5.188  1.00  0.00    -0.264 N
ATOM     34  N   UNL     1      29.699   7.326  -4.931  1.00  0.00    -0.180 NA
BRANCH  33  35
ATOM     35  C   UNL     1      28.240   8.989  -6.012  1.00  0.00     0.088 C
ATOM     36  C   UNL     1      28.551   8.754  -7.517  1.00  0.00     0.048 C
ATOM     37  C   UNL     1      27.057   8.099  -5.545  1.00  0.00     0.048 C
ATOM     38  C   UNL     1      28.034   7.401  -7.990  1.00  0.00     0.083 C
ATOM     39  C   UNL     1      26.030   7.897  -6.652  1.00  0.00     0.083 C
ATOM     40  N   UNL     1      26.577   7.310  -7.872  1.00  0.00    -0.317 NA
ATOM     41  H   UNL     1      26.305   6.329  -7.945  1.00  0.00     0.122 HD
ATOM     42  G   UNL     1      27.848  10.489  -5.826  1.00  0.00     0.000 C
ENDBRANCH  33  35
ENDBRANCH  27  30
ENDBRANCH   4  20
TORSDOF 0
ENDMDL
