MODEL 1
REMARK VINA RESULT:      -8.9      0.000      0.000
REMARK SMILES NC(=O)c1cnc2c3c1[nH]c1cc(ccc13)-c1ccc(nn1)N1CCS(=O)(=O)C[C@H]1CNCC1(CC1)[C@H](C(F)(F)F)N2
REMARK SMILES IDX 4 1 5 2 6 3 7 4 8 5 9 6 10 7 11 8 12 9 13 10 14 11 15 12
REMARK SMILES IDX 16 13 2 15 1 16 3 17 42 20 37 22 34 23 35 24 36 25 38 27
REMARK SMILES IDX 39 28 40 29 41 30 17 31 18 32 22 33 19 34 21 35 20 36 23 37
REMARK SMILES IDX 24 38 30 39 25 40 29 41 26 42 27 43 28 44 31 45 32 46 33 48
REMARK H PARENT 10 14 1 18 1 19 42 21 32 47
REMARK Flexibility Score:   57.900
ROOT
ATOM      1  C   UNL     1      34.247  10.780  -2.257  1.00  0.00     0.082 A
ATOM      2  C   UNL     1      34.672  12.082  -2.475  1.00  0.00     0.129 A
ATOM      3  N   UNL     1      34.025  12.993  -3.250  1.00  0.00    -0.238 NA
ATOM      4  C   UNL     1      32.884  12.640  -3.881  1.00  0.00     0.136 A
ATOM      5  C   UNL     1      32.326  11.366  -3.629  1.00  0.00     0.051 A
ATOM      6  C   UNL     1      33.056  10.428  -2.896  1.00  0.00     0.065 A
ATOM      7  N   UNL     1      32.417   9.215  -3.054  1.00  0.00    -0.354 N
ATOM      8  C   UNL     1      31.281   9.359  -3.815  1.00  0.00     0.047 A
ATOM      9  C   UNL     1      30.447   8.403  -4.414  1.00  0.00     0.037 A
ATOM     10  C   UNL     1      29.426   8.872  -5.267  1.00  0.00     0.004 A
ATOM     11  C   UNL     1      29.105  10.244  -5.260  1.00  0.00     0.011 A
ATOM     12  C   UNL     1      29.944  11.177  -4.654  1.00  0.00     0.012 A
ATOM     13  C   UNL     1      31.115  10.725  -4.026  1.00  0.00     0.011 A
ATOM     14  H   UNL     1      32.795   8.327  -2.756  1.00  0.00     0.167 HD
ENDROOT
BRANCH   1  15
ATOM     15  C   UNL     1      35.045   9.870  -1.426  1.00  0.00     0.252 C
ATOM     16  N   UNL     1      36.054  10.428  -0.691  1.00  0.00    -0.365 N
ATOM     17  O   UNL     1      34.842   8.665  -1.423  1.00  0.00    -0.269 OA
ATOM     18  H   UNL     1      36.626   9.797  -0.141  1.00  0.00     0.159 HD
ATOM     19  H   UNL     1      36.367  11.382  -0.807  1.00  0.00     0.159 HD
ENDBRANCH   1  15
BRANCH   4  20
ATOM     20  N   UNL     1      32.336  13.538  -4.791  1.00  0.00    -0.358 N
ATOM     21  H   UNL     1      31.860  12.980  -5.501  1.00  0.00     0.162 HD
BRANCH  20  22
ATOM     22  C   UNL     1      31.367  14.554  -4.250  1.00  0.00     0.194 C
BRANCH  22  23
ATOM     23  C   UNL     1      30.466  15.214  -5.343  1.00  0.00     0.012 C
ATOM     24  C   UNL     1      29.002  15.495  -5.016  1.00  0.00     0.011 C
ATOM     25  C   UNL     1      29.335  14.408  -5.990  1.00  0.00     0.011 C
ATOM     26  G   UNL     1      31.251  16.163  -6.260  1.00  0.00     0.000 C
ENDBRANCH  22  23
BRANCH  22  27
ATOM     27  C   UNL     1      31.977  15.515  -3.187  1.00  0.00     0.409 C
ATOM     28  F   UNL     1      31.279  16.649  -2.983  1.00  0.00    -0.169 F
ATOM     29  F   UNL     1      32.085  14.888  -1.986  1.00  0.00    -0.169 F
ATOM     30  F   UNL     1      33.244  15.863  -3.540  1.00  0.00    -0.169 F
ENDBRANCH  22  27
ENDBRANCH  20  22
ENDBRANCH   4  20
BRANCH  10  31
ATOM     31  C   UNL     1      28.993   8.065  -6.431  1.00  0.00     0.093 A
ATOM     32  C   UNL     1      27.761   7.432  -6.485  1.00  0.00     0.035 A
ATOM     33  N   UNL     1      29.585   8.478  -7.572  1.00  0.00    -0.148 NA
ATOM     34  C   UNL     1      26.999   7.587  -7.646  1.00  0.00     0.051 A
ATOM     35  N   UNL     1      28.832   8.647  -8.688  1.00  0.00    -0.132 NA
ATOM     36  C   UNL     1      27.514   8.360  -8.679  1.00  0.00     0.151 A
BRANCH  36  37
ATOM     37  N   UNL     1      26.678   9.115  -9.494  1.00  0.00    -0.349 N
ATOM     38  C   UNL     1      25.572   8.541 -10.240  1.00  0.00     0.134 C
ATOM     39  C   UNL     1      26.917  10.584  -9.445  1.00  0.00     0.112 C
ATOM     40  C   UNL     1      24.305   9.302  -9.942  1.00  0.00     0.158 C
ATOM     41  C   UNL     1      26.183  11.323 -10.553  1.00  0.00     0.163 C
ATOM     42  S   UNL     1      24.445  10.952 -10.584  1.00  0.00     0.154 S
ATOM     43  O   UNL     1      24.037  10.903 -11.976  1.00  0.00    -0.229 OA
ATOM     44  O   UNL     1      23.762  11.836  -9.658  1.00  0.00    -0.229 OA
BRANCH  39  45
ATOM     45  C   UNL     1      26.619  11.177  -8.018  1.00  0.00     0.107 C
BRANCH  45  46
ATOM     46  N   UNL     1      26.990  12.600  -7.905  1.00  0.00    -0.314 NA
ATOM     47  H   UNL     1      27.726  12.663  -7.198  1.00  0.00     0.122 HD
BRANCH  46  48
ATOM     48  C   UNL     1      25.854  13.414  -7.434  1.00  0.00     0.090 C
ATOM     49  G   UNL     1      25.814  13.642  -5.916  1.00  0.00     0.000 C
ENDBRANCH  46  48
ENDBRANCH  45  46
ENDBRANCH  39  45
ENDBRANCH  36  37
ENDBRANCH  10  31
TORSDOF 2
ENDMDL
MODEL 2
REMARK VINA RESULT:      -8.8      5.153      8.763
REMARK SMILES NC(=O)c1cnc2c3c1[nH]c1cc(ccc13)-c1ccc(nn1)N1CCS(=O)(=O)C[C@H]1CNCC1(CC1)[C@H](C(F)(F)F)N2
REMARK SMILES IDX 4 1 5 2 6 3 7 4 8 5 9 6 10 7 11 8 12 9 13 10 14 11 15 12
REMARK SMILES IDX 16 13 2 15 1 16 3 17 42 20 37 22 34 23 35 24 36 25 38 27
REMARK SMILES IDX 39 28 40 29 41 30 17 31 18 32 22 33 19 34 21 35 20 36 23 37
REMARK SMILES IDX 24 38 30 39 25 40 29 41 26 42 27 43 28 44 31 45 32 46 33 48
REMARK H PARENT 10 14 1 18 1 19 42 21 32 47
REMARK Flexibility Score:   57.900
ROOT
ATOM      1  C   UNL     1      28.231   8.666  -5.488  1.00  0.00     0.082 A
ATOM      2  C   UNL     1      29.421   7.985  -5.273  1.00  0.00     0.129 A
ATOM      3  N   UNL     1      30.591   8.563  -4.892  1.00  0.00    -0.238 NA
ATOM      4  C   UNL     1      30.644   9.901  -4.708  1.00  0.00     0.136 A
ATOM      5  C   UNL     1      29.453  10.655  -4.804  1.00  0.00     0.051 A
ATOM      6  C   UNL     1      28.289  10.045  -5.276  1.00  0.00     0.065 A
ATOM      7  N   UNL     1      27.388  11.057  -5.536  1.00  0.00    -0.354 N
ATOM      8  C   UNL     1      27.918  12.280  -5.198  1.00  0.00     0.047 A
ATOM      9  C   UNL     1      27.478  13.583  -5.478  1.00  0.00     0.037 A
ATOM     10  C   UNL     1      28.328  14.648  -5.115  1.00  0.00     0.004 A
ATOM     11  C   UNL     1      29.413  14.394  -4.253  1.00  0.00     0.011 A
ATOM     12  C   UNL     1      29.830  13.092  -3.983  1.00  0.00     0.012 A
ATOM     13  C   UNL     1      29.133  12.026  -4.570  1.00  0.00     0.011 A
ATOM     14  H   UNL     1      26.511  10.930  -6.022  1.00  0.00     0.167 HD
ENDROOT
BRANCH   1  15
ATOM     15  C   UNL     1      27.034   7.942  -5.931  1.00  0.00     0.252 C
ATOM     16  N   UNL     1      25.959   7.946  -5.086  1.00  0.00    -0.365 N
ATOM     17  O   UNL     1      27.013   7.331  -6.989  1.00  0.00    -0.269 OA
ATOM     18  H   UNL     1      25.143   7.421  -5.376  1.00  0.00     0.159 HD
ATOM     19  H   UNL     1      26.000   8.281  -4.133  1.00  0.00     0.159 HD
ENDBRANCH   1  15
BRANCH   4  20
ATOM     20  N   UNL     1      31.888  10.479  -4.478  1.00  0.00    -0.358 N
ATOM     21  H   UNL     1      31.846  11.425  -4.862  1.00  0.00     0.162 HD
BRANCH  20  22
ATOM     22  C   UNL     1      32.351  10.561  -3.049  1.00  0.00     0.194 C
BRANCH  22  23
ATOM     23  C   UNL     1      33.563  11.523  -2.830  1.00  0.00     0.012 C
ATOM     24  C   UNL     1      34.935  11.106  -3.354  1.00  0.00     0.011 C
ATOM     25  C   UNL     1      34.693  11.124  -1.876  1.00  0.00     0.011 C
ATOM     26  G   UNL     1      33.149  13.002  -2.834  1.00  0.00     0.000 C
ENDBRANCH  22  23
BRANCH  22  27
ATOM     27  C   UNL     1      32.421   9.186  -2.321  1.00  0.00     0.409 C
ATOM     28  F   UNL     1      32.980   8.194  -3.040  1.00  0.00    -0.169 F
ATOM     29  F   UNL     1      33.132   9.296  -1.167  1.00  0.00    -0.169 F
ATOM     30  F   UNL     1      31.175   8.785  -1.953  1.00  0.00    -0.169 F
ENDBRANCH  22  27
ENDBRANCH  20  22
ENDBRANCH   4  20
BRANCH  10  31
ATOM     31  C   UNL     1      28.359  15.890  -5.922  1.00  0.00     0.093 A
ATOM     32  C   UNL     1      27.809  17.083  -5.479  1.00  0.00     0.035 A
ATOM     33  N   UNL     1      29.413  15.911  -6.765  1.00  0.00    -0.148 NA
ATOM     34  C   UNL     1      28.583  18.241  -5.597  1.00  0.00     0.051 A
ATOM     35  N   UNL     1      30.171  17.032  -6.854  1.00  0.00    -0.132 NA
ATOM     36  C   UNL     1      29.853  18.136  -6.149  1.00  0.00     0.151 A
BRANCH  36  37
ATOM     37  N   UNL     1      30.891  18.955  -5.718  1.00  0.00    -0.349 N
ATOM     38  C   UNL     1      32.290  18.579  -5.821  1.00  0.00     0.134 C
ATOM     39  C   UNL     1      30.470  20.308  -5.261  1.00  0.00     0.112 C
ATOM     40  C   UNL     1      33.061  19.668  -6.522  1.00  0.00     0.158 C
ATOM     41  C   UNL     1      31.590  21.045  -4.542  1.00  0.00     0.163 C
ATOM     42  S   UNL     1      33.082  21.123  -5.504  1.00  0.00     0.154 S
ATOM     43  O   UNL     1      34.198  20.983  -4.585  1.00  0.00    -0.229 OA
ATOM     44  O   UNL     1      33.010  22.271  -6.388  1.00  0.00    -0.229 OA
BRANCH  39  45
ATOM     45  C   UNL     1      29.843  21.152  -6.432  1.00  0.00     0.107 C
BRANCH  45  46
ATOM     46  N   UNL     1      28.743  22.024  -5.978  1.00  0.00    -0.314 NA
ATOM     47  H   UNL     1      28.548  21.779  -5.005  1.00  0.00     0.122 HD
BRANCH  46  48
ATOM     48  C   UNL     1      27.511  21.780  -6.752  1.00  0.00     0.090 C
ATOM     49  G   UNL     1      27.570  22.244  -8.215  1.00  0.00     0.000 C
ENDBRANCH  46  48
ENDBRANCH  45  46
ENDBRANCH  39  45
ENDBRANCH  36  37
ENDBRANCH  10  31
TORSDOF 2
ENDMDL
MODEL 3
REMARK VINA RESULT:      -8.8      4.199      8.141
REMARK SMILES NC(=O)c1cnc2c3c1[nH]c1cc(ccc13)-c1ccc(nn1)N1CCS(=O)(=O)C[C@H]1CNCC1(CC1)[C@H](C(F)(F)F)N2
REMARK SMILES IDX 4 1 5 2 6 3 7 4 8 5 9 6 10 7 11 8 12 9 13 10 14 11 15 12
REMARK SMILES IDX 16 13 2 15 1 16 3 17 42 20 37 22 34 23 35 24 36 25 38 27
REMARK SMILES IDX 39 28 40 29 41 30 17 31 18 32 22 33 19 34 21 35 20 36 23 37
REMARK SMILES IDX 24 38 30 39 25 40 29 41 26 42 27 43 28 44 31 45 32 46 33 48
REMARK H PARENT 10 14 1 18 1 19 42 21 32 47
REMARK Flexibility Score:   57.900
ROOT
ATOM      1  C   UNL     1      28.094   8.228  -5.627  1.00  0.00     0.082 A
ATOM      2  C   UNL     1      29.324   7.595  -5.515  1.00  0.00     0.129 A
ATOM      3  N   UNL     1      30.483   8.205  -5.156  1.00  0.00    -0.238 NA
ATOM      4  C   UNL     1      30.485   9.529  -4.888  1.00  0.00     0.136 A
ATOM      5  C   UNL     1      29.256  10.228  -4.875  1.00  0.00     0.051 A
ATOM      6  C   UNL     1      28.099   9.592  -5.328  1.00  0.00     0.065 A
ATOM      7  N   UNL     1      27.139  10.572  -5.478  1.00  0.00    -0.354 N
ATOM      8  C   UNL     1      27.629  11.796  -5.087  1.00  0.00     0.047 A
ATOM      9  C   UNL     1      27.115  13.091  -5.259  1.00  0.00     0.037 A
ATOM     10  C   UNL     1      27.933  14.172  -4.870  1.00  0.00     0.004 A
ATOM     11  C   UNL     1      29.072  13.919  -4.081  1.00  0.00     0.011 A
ATOM     12  C   UNL     1      29.562  12.625  -3.917  1.00  0.00     0.012 A
ATOM     13  C   UNL     1      28.886  11.564  -4.538  1.00  0.00     0.011 A
ATOM     14  H   UNL     1      26.245  10.432  -5.927  1.00  0.00     0.167 HD
ENDROOT
BRANCH   1  15
ATOM     15  C   UNL     1      26.910   7.474  -6.057  1.00  0.00     0.252 C
ATOM     16  N   UNL     1      25.888   7.360  -5.156  1.00  0.00    -0.365 N
ATOM     17  O   UNL     1      26.857   6.941  -7.155  1.00  0.00    -0.269 OA
ATOM     18  H   UNL     1      25.083   6.814  -5.440  1.00  0.00     0.159 HD
ATOM     19  H   UNL     1      25.968   7.627  -4.184  1.00  0.00     0.159 HD
ENDBRANCH   1  15
BRANCH   4  20
ATOM     20  N   UNL     1      31.711  10.153  -4.682  1.00  0.00    -0.358 N
ATOM     21  H   UNL     1      31.666  11.052  -5.165  1.00  0.00     0.162 HD
BRANCH  20  22
ATOM     22  C   UNL     1      32.125  10.394  -3.257  1.00  0.00     0.194 C
BRANCH  22  23
ATOM     23  C   UNL     1      33.311  11.401  -3.104  1.00  0.00     0.012 C
ATOM     24  C   UNL     1      33.063  12.722  -2.380  1.00  0.00     0.011 C
ATOM     25  C   UNL     1      33.286  12.732  -3.861  1.00  0.00     0.011 C
ATOM     26  G   UNL     1      34.670  10.697  -2.986  1.00  0.00     0.000 C
ENDBRANCH  22  23
BRANCH  22  27
ATOM     27  C   UNL     1      32.199   9.104  -2.386  1.00  0.00     0.409 C
ATOM     28  F   UNL     1      32.789   8.052  -2.985  1.00  0.00    -0.169 F
ATOM     29  F   UNL     1      32.881   9.347  -1.236  1.00  0.00    -0.169 F
ATOM     30  F   UNL     1      30.950   8.723  -2.005  1.00  0.00    -0.169 F
ENDBRANCH  22  27
ENDBRANCH  20  22
ENDBRANCH   4  20
BRANCH  10  31
ATOM     31  C   UNL     1      27.864  15.462  -5.595  1.00  0.00     0.093 A
ATOM     32  C   UNL     1      27.846  16.686  -4.943  1.00  0.00     0.035 A
ATOM     33  N   UNL     1      28.400  15.369  -6.830  1.00  0.00    -0.148 NA
ATOM     34  C   UNL     1      28.714  17.681  -5.402  1.00  0.00     0.051 A
ATOM     35  N   UNL     1      29.258  16.329  -7.257  1.00  0.00    -0.132 NA
ATOM     36  C   UNL     1      29.541  17.394  -6.480  1.00  0.00     0.151 A
BRANCH  36  37
ATOM     37  N   UNL     1      30.811  17.952  -6.577  1.00  0.00    -0.349 N
ATOM     38  C   UNL     1      31.082  19.353  -6.308  1.00  0.00     0.134 C
ATOM     39  C   UNL     1      31.902  16.976  -6.851  1.00  0.00     0.112 C
ATOM     40  C   UNL     1      32.201  19.472  -5.304  1.00  0.00     0.158 C
ATOM     41  C   UNL     1      33.205  17.662  -7.228  1.00  0.00     0.163 C
ATOM     42  S   UNL     1      33.708  18.874  -6.030  1.00  0.00     0.154 S
ATOM     43  O   UNL     1      34.300  19.984  -6.756  1.00  0.00    -0.229 OA
ATOM     44  O   UNL     1      34.460  18.212  -4.981  1.00  0.00    -0.229 OA
BRANCH  39  45
ATOM     45  C   UNL     1      32.076  15.948  -5.672  1.00  0.00     0.107 C
BRANCH  45  46
ATOM     46  N   UNL     1      31.309  16.326  -4.471  1.00  0.00    -0.314 NA
ATOM     47  H   UNL     1      31.088  17.320  -4.556  1.00  0.00     0.122 HD
BRANCH  46  48
ATOM     48  C   UNL     1      32.112  16.154  -3.245  1.00  0.00     0.090 C
ATOM     49  G   UNL     1      31.316  15.688  -2.017  1.00  0.00     0.000 C
ENDBRANCH  46  48
ENDBRANCH  45  46
ENDBRANCH  39  45
ENDBRANCH  36  37
ENDBRANCH  10  31
TORSDOF 2
ENDMDL
MODEL 4
REMARK VINA RESULT:      -8.7      2.493      4.399
REMARK SMILES NC(=O)c1cnc2c3c1[nH]c1cc(ccc13)-c1ccc(nn1)N1CCS(=O)(=O)C[C@H]1CNCC1(CC1)[C@H](C(F)(F)F)N2
REMARK SMILES IDX 4 1 5 2 6 3 7 4 8 5 9 6 10 7 11 8 12 9 13 10 14 11 15 12
REMARK SMILES IDX 16 13 2 15 1 16 3 17 42 20 37 22 34 23 35 24 36 25 38 27
REMARK SMILES IDX 39 28 40 29 41 30 17 31 18 32 22 33 19 34 21 35 20 36 23 37
REMARK SMILES IDX 24 38 30 39 25 40 29 41 26 42 27 43 28 44 31 45 32 46 33 48
REMARK H PARENT 10 14 1 18 1 19 42 21 32 47
REMARK Flexibility Score:   57.900
ROOT
ATOM      1  C   UNL     1      32.836  13.065  -3.309  1.00  0.00     0.082 A
ATOM      2  C   UNL     1      33.643  14.151  -3.002  1.00  0.00     0.129 A
ATOM      3  N   UNL     1      33.289  15.453  -3.164  1.00  0.00    -0.238 NA
ATOM      4  C   UNL     1      32.073  15.756  -3.668  1.00  0.00     0.136 A
ATOM      5  C   UNL     1      31.150  14.713  -3.908  1.00  0.00     0.051 A
ATOM      6  C   UNL     1      31.573  13.385  -3.810  1.00  0.00     0.065 A
ATOM      7  N   UNL     1      30.577  12.609  -4.368  1.00  0.00    -0.354 N
ATOM      8  C   UNL     1      29.519  13.390  -4.768  1.00  0.00     0.047 A
ATOM      9  C   UNL     1      28.403  13.090  -5.565  1.00  0.00     0.037 A
ATOM     10  C   UNL     1      27.553  14.157  -5.924  1.00  0.00     0.004 A
ATOM     11  C   UNL     1      27.683  15.389  -5.254  1.00  0.00     0.011 A
ATOM     12  C   UNL     1      28.796  15.665  -4.461  1.00  0.00     0.012 A
ATOM     13  C   UNL     1      29.785  14.680  -4.321  1.00  0.00     0.011 A
ATOM     14  H   UNL     1      30.666  11.623  -4.567  1.00  0.00     0.167 HD
ENDROOT
BRANCH   1  15
ATOM     15  C   UNL     1      33.335  11.696  -3.124  1.00  0.00     0.252 C
ATOM     16  N   UNL     1      34.553  11.558  -2.518  1.00  0.00    -0.365 N
ATOM     17  O   UNL     1      32.709  10.728  -3.529  1.00  0.00    -0.269 OA
ATOM     18  H   UNL     1      34.913  10.617  -2.418  1.00  0.00     0.159 HD
ATOM     19  H   UNL     1      35.177  12.333  -2.337  1.00  0.00     0.159 HD
ENDBRANCH   1  15
BRANCH   4  20
ATOM     20  N   UNL     1      31.805  17.087  -3.972  1.00  0.00    -0.358 N
ATOM     21  H   UNL     1      32.055  17.631  -3.144  1.00  0.00     0.162 HD
BRANCH  20  22
ATOM     22  C   UNL     1      32.512  17.673  -5.163  1.00  0.00     0.194 C
BRANCH  22  23
ATOM     23  C   UNL     1      32.343  19.220  -5.301  1.00  0.00     0.012 C
ATOM     24  C   UNL     1      31.288  19.922  -4.449  1.00  0.00     0.011 C
ATOM     25  C   UNL     1      31.068  19.797  -5.925  1.00  0.00     0.011 C
ATOM     26  G   UNL     1      33.662  19.930  -5.640  1.00  0.00     0.000 C
ENDBRANCH  22  23
BRANCH  22  27
ATOM     27  C   UNL     1      32.355  16.842  -6.471  1.00  0.00     0.409 C
ATOM     28  F   UNL     1      32.884  15.604  -6.422  1.00  0.00    -0.169 F
ATOM     29  F   UNL     1      31.041  16.706  -6.791  1.00  0.00    -0.169 F
ATOM     30  F   UNL     1      32.927  17.500  -7.516  1.00  0.00    -0.169 F
ENDBRANCH  22  27
ENDBRANCH  20  22
ENDBRANCH   4  20
BRANCH  10  31
ATOM     31  C   UNL     1      26.845  14.146  -7.225  1.00  0.00     0.093 A
ATOM     32  C   UNL     1      27.509  14.246  -8.438  1.00  0.00     0.035 A
ATOM     33  N   UNL     1      25.680  13.467  -7.153  1.00  0.00    -0.148 NA
ATOM     34  C   UNL     1      27.171  13.335  -9.443  1.00  0.00     0.051 A
ATOM     35  N   UNL     1      25.373  12.570  -8.122  1.00  0.00    -0.132 NA
ATOM     36  C   UNL     1      26.193  12.385  -9.176  1.00  0.00     0.151 A
BRANCH  36  37
ATOM     37  N   UNL     1      26.256  11.115  -9.738  1.00  0.00    -0.349 N
ATOM     38  C   UNL     1      26.507  10.887 -11.150  1.00  0.00     0.134 C
ATOM     39  C   UNL     1      26.176   9.995  -8.760  1.00  0.00     0.112 C
ATOM     40  C   UNL     1      27.653   9.922 -11.315  1.00  0.00     0.158 C
ATOM     41  C   UNL     1      25.961   8.652  -9.442  1.00  0.00     0.163 C
ATOM     42  S   UNL     1      27.171   8.326 -10.702  1.00  0.00     0.154 S
ATOM     43  O   UNL     1      26.493   7.640 -11.787  1.00  0.00    -0.229 OA
ATOM     44  O   UNL     1      28.340   7.729 -10.084  1.00  0.00    -0.229 OA
BRANCH  39  45
ATOM     45  C   UNL     1      27.406   9.987  -7.779  1.00  0.00     0.107 C
BRANCH  45  46
ATOM     46  N   UNL     1      27.588   8.688  -7.106  1.00  0.00    -0.314 NA
ATOM     47  H   UNL     1      27.109   8.747  -6.205  1.00  0.00     0.122 HD
BRANCH  46  48
ATOM     48  C   UNL     1      29.013   8.420  -6.832  1.00  0.00     0.090 C
ATOM     49  G   UNL     1      29.602   9.220  -5.662  1.00  0.00     0.000 C
ENDBRANCH  46  48
ENDBRANCH  45  46
ENDBRANCH  39  45
ENDBRANCH  36  37
ENDBRANCH  10  31
TORSDOF 2
ENDMDL
MODEL 5
REMARK VINA RESULT:      -8.7      3.507      6.931
REMARK SMILES NC(=O)c1cnc2c3c1[nH]c1cc(ccc13)-c1ccc(nn1)N1CCS(=O)(=O)C[C@H]1CNCC1(CC1)[C@H](C(F)(F)F)N2
REMARK SMILES IDX 4 1 5 2 6 3 7 4 8 5 9 6 10 7 11 8 12 9 13 10 14 11 15 12
REMARK SMILES IDX 16 13 2 15 1 16 3 17 42 20 37 22 34 23 35 24 36 25 38 27
REMARK SMILES IDX 39 28 40 29 41 30 17 31 18 32 22 33 19 34 21 35 20 36 23 37
REMARK SMILES IDX 24 38 30 39 25 40 29 41 26 42 27 43 28 44 31 45 32 46 33 48
REMARK H PARENT 10 14 1 18 1 19 42 21 32 47
REMARK Flexibility Score:   57.900
ROOT
ATOM      1  C   UNL     1      33.062   9.550  -2.537  1.00  0.00     0.082 A
ATOM      2  C   UNL     1      32.227   8.584  -3.082  1.00  0.00     0.129 A
ATOM      3  N   UNL     1      31.350   8.798  -4.098  1.00  0.00    -0.238 NA
ATOM      4  C   UNL     1      31.245  10.031  -4.640  1.00  0.00     0.136 A
ATOM      5  C   UNL     1      32.132  11.045  -4.215  1.00  0.00     0.051 A
ATOM      6  C   UNL     1      32.963  10.816  -3.116  1.00  0.00     0.065 A
ATOM      7  N   UNL     1      33.490  12.040  -2.755  1.00  0.00    -0.354 N
ATOM      8  C   UNL     1      33.066  13.025  -3.615  1.00  0.00     0.047 A
ATOM      9  C   UNL     1      33.154  14.423  -3.529  1.00  0.00     0.037 A
ATOM     10  C   UNL     1      32.487  15.179  -4.515  1.00  0.00     0.004 A
ATOM     11  C   UNL     1      32.019  14.530  -5.675  1.00  0.00     0.011 A
ATOM     12  C   UNL     1      31.945  13.140  -5.742  1.00  0.00     0.012 A
ATOM     13  C   UNL     1      32.368  12.388  -4.637  1.00  0.00     0.011 A
ATOM     14  H   UNL     1      34.012  12.209  -1.907  1.00  0.00     0.167 HD
ENDROOT
BRANCH   1  15
ATOM     15  C   UNL     1      33.948   9.215  -1.416  1.00  0.00     0.252 C
ATOM     16  N   UNL     1      35.282   9.099  -1.694  1.00  0.00    -0.365 N
ATOM     17  O   UNL     1      33.509   9.010  -0.294  1.00  0.00    -0.269 OA
ATOM     18  H   UNL     1      35.891   8.837  -0.928  1.00  0.00     0.159 HD
ATOM     19  H   UNL     1      35.657   9.080  -2.632  1.00  0.00     0.159 HD
ENDBRANCH   1  15
BRANCH   4  20
ATOM     20  N   UNL     1      30.228  10.253  -5.563  1.00  0.00    -0.358 N
ATOM     21  H   UNL     1      30.600   9.987  -6.476  1.00  0.00     0.162 HD
BRANCH  20  22
ATOM     22  C   UNL     1      28.932   9.524  -5.342  1.00  0.00     0.194 C
BRANCH  22  23
ATOM     23  C   UNL     1      28.792   8.213  -6.182  1.00  0.00     0.012 C
ATOM     24  C   UNL     1      27.669   7.237  -5.839  1.00  0.00     0.011 C
ATOM     25  C   UNL     1      29.086   6.855  -5.535  1.00  0.00     0.011 C
ATOM     26  G   UNL     1      29.241   8.396  -7.639  1.00  0.00     0.000 C
ENDBRANCH  22  23
BRANCH  22  27
ATOM     27  C   UNL     1      27.679  10.448  -5.293  1.00  0.00     0.409 C
ATOM     28  F   UNL     1      27.909  11.686  -4.816  1.00  0.00    -0.169 F
ATOM     29  F   UNL     1      27.145  10.588  -6.536  1.00  0.00    -0.169 F
ATOM     30  F   UNL     1      26.706   9.880  -4.531  1.00  0.00    -0.169 F
ENDBRANCH  22  27
ENDBRANCH  20  22
ENDBRANCH   4  20
BRANCH  10  31
ATOM     31  C   UNL     1      31.914  16.505  -4.183  1.00  0.00     0.093 A
ATOM     32  C   UNL     1      32.119  17.626  -4.971  1.00  0.00     0.035 A
ATOM     33  N   UNL     1      30.779  16.390  -3.462  1.00  0.00    -0.148 NA
ATOM     34  C   UNL     1      31.005  18.402  -5.302  1.00  0.00     0.051 A
ATOM     35  N   UNL     1      29.696  17.131  -3.805  1.00  0.00    -0.132 NA
ATOM     36  C   UNL     1      29.760  18.012  -4.824  1.00  0.00     0.151 A
BRANCH  36  37
ATOM     37  N   UNL     1      28.606  18.230  -5.570  1.00  0.00    -0.349 N
ATOM     38  C   UNL     1      28.221  19.540  -6.066  1.00  0.00     0.134 C
ATOM     39  C   UNL     1      27.858  16.996  -5.937  1.00  0.00     0.112 C
ATOM     40  C   UNL     1      27.960  19.467  -7.549  1.00  0.00     0.158 C
ATOM     41  C   UNL     1      26.476  17.307  -6.492  1.00  0.00     0.163 C
ATOM     42  S   UNL     1      26.529  18.457  -7.846  1.00  0.00     0.154 S
ATOM     43  O   UNL     1      25.367  19.320  -7.727  1.00  0.00    -0.229 OA
ATOM     44  O   UNL     1      26.765  17.723  -9.075  1.00  0.00    -0.229 OA
BRANCH  39  45
ATOM     45  C   UNL     1      28.698  16.063  -6.886  1.00  0.00     0.107 C
BRANCH  45  46
ATOM     46  N   UNL     1      28.543  14.634  -6.559  1.00  0.00    -0.314 NA
ATOM     47  H   UNL     1      29.464  14.201  -6.662  1.00  0.00     0.122 HD
BRANCH  46  48
ATOM     48  C   UNL     1      27.632  13.963  -7.505  1.00  0.00     0.090 C
ATOM     49  G   UNL     1      26.225  13.686  -6.954  1.00  0.00     0.000 C
ENDBRANCH  46  48
ENDBRANCH  45  46
ENDBRANCH  39  45
ENDBRANCH  36  37
ENDBRANCH  10  31
TORSDOF 2
ENDMDL
MODEL 6
REMARK VINA RESULT:      -8.6      2.568      4.455
REMARK SMILES NC(=O)c1cnc2c3c1[nH]c1cc(ccc13)-c1ccc(nn1)N1CCS(=O)(=O)C[C@H]1CNCC1(CC1)[C@H](C(F)(F)F)N2
REMARK SMILES IDX 4 1 5 2 6 3 7 4 8 5 9 6 10 7 11 8 12 9 13 10 14 11 15 12
REMARK SMILES IDX 16 13 2 15 1 16 3 17 42 20 37 22 34 23 35 24 36 25 38 27
REMARK SMILES IDX 39 28 40 29 41 30 17 31 18 32 22 33 19 34 21 35 20 36 23 37
REMARK SMILES IDX 24 38 30 39 25 40 29 41 26 42 27 43 28 44 31 45 32 46 33 48
REMARK H PARENT 10 14 1 18 1 19 42 21 32 47
REMARK Flexibility Score:   57.900
ROOT
ATOM      1  C   UNL     1      33.009  13.215  -3.301  1.00  0.00     0.082 A
ATOM      2  C   UNL     1      33.824  14.304  -3.028  1.00  0.00     0.129 A
ATOM      3  N   UNL     1      33.472  15.604  -3.211  1.00  0.00    -0.238 NA
ATOM      4  C   UNL     1      32.250  15.901  -3.705  1.00  0.00     0.136 A
ATOM      5  C   UNL     1      31.321  14.856  -3.910  1.00  0.00     0.051 A
ATOM      6  C   UNL     1      31.741  13.529  -3.790  1.00  0.00     0.065 A
ATOM      7  N   UNL     1      30.734  12.746  -4.318  1.00  0.00    -0.354 N
ATOM      8  C   UNL     1      29.673  13.522  -4.720  1.00  0.00     0.047 A
ATOM      9  C   UNL     1      28.546  13.209  -5.495  1.00  0.00     0.037 A
ATOM     10  C   UNL     1      27.694  14.272  -5.864  1.00  0.00     0.004 A
ATOM     11  C   UNL     1      27.838  15.518  -5.221  1.00  0.00     0.011 A
ATOM     12  C   UNL     1      28.962  15.806  -4.450  1.00  0.00     0.012 A
ATOM     13  C   UNL     1      29.950  14.820  -4.303  1.00  0.00     0.011 A
ATOM     14  H   UNL     1      30.817  11.755  -4.498  1.00  0.00     0.167 HD
ENDROOT
BRANCH   1  15
ATOM     15  C   UNL     1      33.506  11.849  -3.095  1.00  0.00     0.252 C
ATOM     16  N   UNL     1      34.663  11.712  -2.378  1.00  0.00    -0.365 N
ATOM     17  O   UNL     1      32.935  10.882  -3.577  1.00  0.00    -0.269 OA
ATOM     18  H   UNL     1      35.024  10.773  -2.261  1.00  0.00     0.159 HD
ATOM     19  H   UNL     1      35.256  12.490  -2.123  1.00  0.00     0.159 HD
ENDBRANCH   1  15
BRANCH   4  20
ATOM     20  N   UNL     1      31.982  17.226  -4.032  1.00  0.00    -0.358 N
ATOM     21  H   UNL     1      32.306  17.792  -3.245  1.00  0.00     0.162 HD
BRANCH  20  22
ATOM     22  C   UNL     1      32.604  17.758  -5.293  1.00  0.00     0.194 C
BRANCH  22  23
ATOM     23  C   UNL     1      32.347  19.282  -5.532  1.00  0.00     0.012 C
ATOM     24  C   UNL     1      33.216  20.023  -6.545  1.00  0.00     0.011 C
ATOM     25  C   UNL     1      33.389  20.312  -5.085  1.00  0.00     0.011 C
ATOM     26  G   UNL     1      30.871  19.666  -5.349  1.00  0.00     0.000 C
ENDBRANCH  22  23
BRANCH  22  27
ATOM     27  C   UNL     1      32.434  16.829  -6.531  1.00  0.00     0.409 C
ATOM     28  F   UNL     1      31.157  16.608  -6.901  1.00  0.00    -0.169 F
ATOM     29  F   UNL     1      33.081  17.349  -7.608  1.00  0.00    -0.169 F
ATOM     30  F   UNL     1      33.015  15.621  -6.295  1.00  0.00    -0.169 F
ENDBRANCH  22  27
ENDBRANCH  20  22
ENDBRANCH   4  20
BRANCH  10  31
ATOM     31  C   UNL     1      26.968  14.237  -7.154  1.00  0.00     0.093 A
ATOM     32  C   UNL     1      27.608  14.379  -8.376  1.00  0.00     0.035 A
ATOM     33  N   UNL     1      25.839  13.501  -7.071  1.00  0.00    -0.148 NA
ATOM     34  C   UNL     1      27.299  13.462  -9.384  1.00  0.00     0.051 A
ATOM     35  N   UNL     1      25.561  12.597  -8.043  1.00  0.00    -0.132 NA
ATOM     36  C   UNL     1      26.374  12.463  -9.111  1.00  0.00     0.151 A
BRANCH  36  37
ATOM     37  N   UNL     1      26.490  11.202  -9.686  1.00  0.00    -0.349 N
ATOM     38  C   UNL     1      26.865  10.997 -11.074  1.00  0.00     0.134 C
ATOM     39  C   UNL     1      26.329  10.066  -8.736  1.00  0.00     0.112 C
ATOM     40  C   UNL     1      28.024  10.037 -11.153  1.00  0.00     0.158 C
ATOM     41  C   UNL     1      26.180   8.734  -9.455  1.00  0.00     0.163 C
ATOM     42  S   UNL     1      27.497   8.431 -10.609  1.00  0.00     0.154 S
ATOM     43  O   UNL     1      26.919   7.760 -11.761  1.00  0.00    -0.229 OA
ATOM     44  O   UNL     1      28.609   7.826  -9.901  1.00  0.00    -0.229 OA
BRANCH  39  45
ATOM     45  C   UNL     1      27.469  10.045  -7.651  1.00  0.00     0.107 C
BRANCH  45  46
ATOM     46  N   UNL     1      26.961  10.294  -6.289  1.00  0.00    -0.314 NA
ATOM     47  H   UNL     1      27.102  11.288  -6.093  1.00  0.00     0.122 HD
BRANCH  46  48
ATOM     48  C   UNL     1      27.727   9.533  -5.284  1.00  0.00     0.090 C
ATOM     49  G   UNL     1      29.244   9.502  -5.522  1.00  0.00     0.000 C
ENDBRANCH  46  48
ENDBRANCH  45  46
ENDBRANCH  39  45
ENDBRANCH  36  37
ENDBRANCH  10  31
TORSDOF 2
ENDMDL
MODEL 7
REMARK VINA RESULT:      -8.5      3.978      5.607
REMARK SMILES NC(=O)c1cnc2c3c1[nH]c1cc(ccc13)-c1ccc(nn1)N1CCS(=O)(=O)C[C@H]1CNCC1(CC1)[C@H](C(F)(F)F)N2
REMARK SMILES IDX 4 1 5 2 6 3 7 4 8 5 9 6 10 7 11 8 12 9 13 10 14 11 15 12
REMARK SMILES IDX 16 13 2 15 1 16 3 17 42 20 37 22 34 23 35 24 36 25 38 27
REMARK SMILES IDX 39 28 40 29 41 30 17 31 18 32 22 33 19 34 21 35 20 36 23 37
REMARK SMILES IDX 24 38 30 39 25 40 29 41 26 42 27 43 28 44 31 45 32 46 33 48
REMARK H PARENT 10 14 1 18 1 19 42 21 32 47
REMARK Flexibility Score:   57.900
ROOT
ATOM      1  C   UNL     1      33.012  13.043  -3.197  1.00  0.00     0.082 A
ATOM      2  C   UNL     1      33.756  14.193  -2.974  1.00  0.00     0.129 A
ATOM      3  N   UNL     1      33.315  15.460  -3.195  1.00  0.00    -0.238 NA
ATOM      4  C   UNL     1      32.069  15.657  -3.677  1.00  0.00     0.136 A
ATOM      5  C   UNL     1      31.209  14.547  -3.833  1.00  0.00     0.051 A
ATOM      6  C   UNL     1      31.718  13.256  -3.676  1.00  0.00     0.065 A
ATOM      7  N   UNL     1      30.760  12.389  -4.162  1.00  0.00    -0.354 N
ATOM      8  C   UNL     1      29.643  13.079  -4.571  1.00  0.00     0.047 A
ATOM      9  C   UNL     1      28.528  12.666  -5.317  1.00  0.00     0.037 A
ATOM     10  C   UNL     1      27.603  13.656  -5.707  1.00  0.00     0.004 A
ATOM     11  C   UNL     1      27.671  14.930  -5.107  1.00  0.00     0.011 A
ATOM     12  C   UNL     1      28.785  15.318  -4.365  1.00  0.00     0.012 A
ATOM     13  C   UNL     1      29.838  14.406  -4.202  1.00  0.00     0.011 A
ATOM     14  H   UNL     1      30.907  11.401  -4.310  1.00  0.00     0.167 HD
ENDROOT
BRANCH   1  15
ATOM     15  C   UNL     1      33.603  11.721  -2.955  1.00  0.00     0.252 C
ATOM     16  N   UNL     1      34.869  11.694  -2.438  1.00  0.00    -0.365 N
ATOM     17  O   UNL     1      33.006  10.693  -3.238  1.00  0.00    -0.269 OA
ATOM     18  H   UNL     1      35.290  10.783  -2.299  1.00  0.00     0.159 HD
ATOM     19  H   UNL     1      35.458  12.511  -2.363  1.00  0.00     0.159 HD
ENDBRANCH   1  15
BRANCH   4  20
ATOM     20  N   UNL     1      31.708  16.950  -4.044  1.00  0.00    -0.358 N
ATOM     21  H   UNL     1      31.803  17.527  -3.206  1.00  0.00     0.162 HD
BRANCH  20  22
ATOM     22  C   UNL     1      32.491  17.589  -5.158  1.00  0.00     0.194 C
BRANCH  22  23
ATOM     23  C   UNL     1      32.368  19.147  -5.205  1.00  0.00     0.012 C
ATOM     24  C   UNL     1      32.695  19.870  -6.509  1.00  0.00     0.011 C
ATOM     25  C   UNL     1      33.626  20.009  -5.344  1.00  0.00     0.011 C
ATOM     26  G   UNL     1      31.262  19.678  -4.281  1.00  0.00     0.000 C
ENDBRANCH  22  23
BRANCH  22  27
ATOM     27  C   UNL     1      32.381  16.847  -6.522  1.00  0.00     0.409 C
ATOM     28  F   UNL     1      33.144  17.359  -7.507  1.00  0.00    -0.169 F
ATOM     29  F   UNL     1      32.731  15.540  -6.382  1.00  0.00    -0.169 F
ATOM     30  F   UNL     1      31.090  16.843  -6.952  1.00  0.00    -0.169 F
ENDBRANCH  22  27
ENDBRANCH  20  22
ENDBRANCH   4  20
BRANCH  10  31
ATOM     31  C   UNL     1      26.862  13.529  -6.983  1.00  0.00     0.093 A
ATOM     32  C   UNL     1      25.486  13.673  -7.066  1.00  0.00     0.035 A
ATOM     33  N   UNL     1      27.635  13.852  -8.042  1.00  0.00    -0.148 NA
ATOM     34  C   UNL     1      24.977  14.498  -8.072  1.00  0.00     0.051 A
ATOM     35  N   UNL     1      27.139  14.672  -9.001  1.00  0.00    -0.132 NA
ATOM     36  C   UNL     1      25.871  15.125  -8.932  1.00  0.00     0.151 A
BRANCH  36  37
ATOM     37  N   UNL     1      25.601  16.387  -9.450  1.00  0.00    -0.349 N
ATOM     38  C   UNL     1      24.358  16.715 -10.126  1.00  0.00     0.134 C
ATOM     39  C   UNL     1      26.629  17.420  -9.146  1.00  0.00     0.112 C
ATOM     40  C   UNL     1      23.746  17.943  -9.502  1.00  0.00     0.158 C
ATOM     41  C   UNL     1      26.432  18.685  -9.967  1.00  0.00     0.163 C
ATOM     42  S   UNL     1      24.789  19.345  -9.817  1.00  0.00     0.154 S
ATOM     43  O   UNL     1      24.412  19.872 -11.117  1.00  0.00    -0.229 OA
ATOM     44  O   UNL     1      24.732  20.199  -8.645  1.00  0.00    -0.229 OA
BRANCH  39  45
ATOM     45  C   UNL     1      26.730  17.708  -7.602  1.00  0.00     0.107 C
BRANCH  45  46
ATOM     46  N   UNL     1      28.077  18.145  -7.192  1.00  0.00    -0.314 NA
ATOM     47  H   UNL     1      28.468  17.404  -6.607  1.00  0.00     0.122 HD
BRANCH  46  48
ATOM     48  C   UNL     1      28.017  19.370  -6.373  1.00  0.00     0.090 C
ATOM     49  G   UNL     1      28.815  20.557  -6.933  1.00  0.00     0.000 C
ENDBRANCH  46  48
ENDBRANCH  45  46
ENDBRANCH  39  45
ENDBRANCH  36  37
ENDBRANCH  10  31
TORSDOF 2
ENDMDL
MODEL 8
REMARK VINA RESULT:      -8.5      4.555      8.123
REMARK SMILES NC(=O)c1cnc2c3c1[nH]c1cc(ccc13)-c1ccc(nn1)N1CCS(=O)(=O)C[C@H]1CNCC1(CC1)[C@H](C(F)(F)F)N2
REMARK SMILES IDX 4 1 5 2 6 3 7 4 8 5 9 6 10 7 11 8 12 9 13 10 14 11 15 12
REMARK SMILES IDX 16 13 2 15 1 16 3 17 42 20 37 22 34 23 35 24 36 25 38 27
REMARK SMILES IDX 39 28 40 29 41 30 17 31 18 32 22 33 19 34 21 35 20 36 23 37
REMARK SMILES IDX 24 38 30 39 25 40 29 41 26 42 27 43 28 44 31 45 32 46 33 48
REMARK H PARENT 10 14 1 18 1 19 42 21 32 47
REMARK Flexibility Score:   57.900
ROOT
ATOM      1  C   UNL     1      28.149   8.033  -5.457  1.00  0.00     0.082 A
ATOM      2  C   UNL     1      29.414   7.496  -5.263  1.00  0.00     0.129 A
ATOM      3  N   UNL     1      30.530   8.216  -4.976  1.00  0.00    -0.238 NA
ATOM      4  C   UNL     1      30.447   9.561  -4.874  1.00  0.00     0.136 A
ATOM      5  C   UNL     1      29.178  10.178  -4.953  1.00  0.00     0.051 A
ATOM      6  C   UNL     1      28.067   9.420  -5.329  1.00  0.00     0.065 A
ATOM      7  N   UNL     1      27.051  10.314  -5.602  1.00  0.00    -0.354 N
ATOM      8  C   UNL     1      27.461  11.605  -5.364  1.00  0.00     0.047 A
ATOM      9  C   UNL     1      26.872  12.834  -5.696  1.00  0.00     0.037 A
ATOM     10  C   UNL     1      27.616  14.004  -5.440  1.00  0.00     0.004 A
ATOM     11  C   UNL     1      28.760  13.920  -4.620  1.00  0.00     0.011 A
ATOM     12  C   UNL     1      29.326  12.689  -4.295  1.00  0.00     0.012 A
ATOM     13  C   UNL     1      28.723  11.520  -4.784  1.00  0.00     0.011 A
ATOM     14  H   UNL     1      26.173  10.065  -6.035  1.00  0.00     0.167 HD
ENDROOT
BRANCH   1  15
ATOM     15  C   UNL     1      27.019   7.160  -5.796  1.00  0.00     0.252 C
ATOM     16  N   UNL     1      26.471   7.311  -7.040  1.00  0.00    -0.365 N
ATOM     17  O   UNL     1      26.562   6.364  -4.989  1.00  0.00    -0.269 OA
ATOM     18  H   UNL     1      25.672   6.731  -7.265  1.00  0.00     0.159 HD
ATOM     19  H   UNL     1      26.699   8.075  -7.661  1.00  0.00     0.159 HD
ENDBRANCH   1  15
BRANCH   4  20
ATOM     20  N   UNL     1      31.630  10.280  -4.740  1.00  0.00    -0.358 N
ATOM     21  H   UNL     1      31.482  11.175  -5.210  1.00  0.00     0.162 HD
BRANCH  20  22
ATOM     22  C   UNL     1      32.115  10.547  -3.342  1.00  0.00     0.194 C
BRANCH  22  23
ATOM     23  C   UNL     1      33.287  11.578  -3.265  1.00  0.00     0.012 C
ATOM     24  C   UNL     1      33.075  12.873  -2.485  1.00  0.00     0.011 C
ATOM     25  C   UNL     1      33.166  12.928  -3.979  1.00  0.00     0.011 C
ATOM     26  G   UNL     1      34.667  10.904  -3.287  1.00  0.00     0.000 C
ENDBRANCH  22  23
BRANCH  22  27
ATOM     27  C   UNL     1      32.261   9.270  -2.462  1.00  0.00     0.409 C
ATOM     28  F   UNL     1      32.810   8.211  -3.089  1.00  0.00    -0.169 F
ATOM     29  F   UNL     1      33.026   9.531  -1.369  1.00  0.00    -0.169 F
ATOM     30  F   UNL     1      31.046   8.888  -1.984  1.00  0.00    -0.169 F
ENDBRANCH  22  27
ENDBRANCH  20  22
ENDBRANCH   4  20
BRANCH  10  31
ATOM     31  C   UNL     1      27.478  15.188  -6.318  1.00  0.00     0.093 A
ATOM     32  C   UNL     1      26.819  16.341  -5.920  1.00  0.00     0.035 A
ATOM     33  N   UNL     1      28.488  15.268  -7.210  1.00  0.00    -0.148 NA
ATOM     34  C   UNL     1      27.455  17.565  -6.142  1.00  0.00     0.051 A
ATOM     35  N   UNL     1      29.114  16.456  -7.401  1.00  0.00    -0.132 NA
ATOM     36  C   UNL     1      28.706  17.562  -6.747  1.00  0.00     0.151 A
BRANCH  36  37
ATOM     37  N   UNL     1      29.664  18.513  -6.414  1.00  0.00    -0.349 N
ATOM     38  C   UNL     1      29.494  19.932  -6.675  1.00  0.00     0.134 C
ATOM     39  C   UNL     1      30.828  17.986  -5.650  1.00  0.00     0.112 C
ATOM     40  C   UNL     1      29.729  20.715  -5.408  1.00  0.00     0.158 C
ATOM     41  C   UNL     1      31.964  18.994  -5.566  1.00  0.00     0.163 C
ATOM     42  S   UNL     1      31.434  20.567  -4.932  1.00  0.00     0.154 S
ATOM     43  O   UNL     1      32.167  21.594  -5.652  1.00  0.00    -0.229 OA
ATOM     44  O   UNL     1      31.477  20.527  -3.483  1.00  0.00    -0.229 OA
BRANCH  39  45
ATOM     45  C   UNL     1      30.400  17.436  -4.239  1.00  0.00     0.107 C
BRANCH  45  46
ATOM     46  N   UNL     1      31.028  16.141  -3.919  1.00  0.00    -0.314 NA
ATOM     47  H   UNL     1      30.280  15.445  -3.881  1.00  0.00     0.122 HD
BRANCH  46  48
ATOM     48  C   UNL     1      31.672  16.170  -2.593  1.00  0.00     0.090 C
ATOM     49  G   UNL     1      30.911  15.416  -1.493  1.00  0.00     0.000 C
ENDBRANCH  46  48
ENDBRANCH  45  46
ENDBRANCH  39  45
ENDBRANCH  36  37
ENDBRANCH  10  31
TORSDOF 2
ENDMDL
MODEL 9
REMARK VINA RESULT:      -8.3      3.478      6.686
REMARK SMILES NC(=O)c1cnc2c3c1[nH]c1cc(ccc13)-c1ccc(nn1)N1CCS(=O)(=O)C[C@H]1CNCC1(CC1)[C@H](C(F)(F)F)N2
REMARK SMILES IDX 4 1 5 2 6 3 7 4 8 5 9 6 10 7 11 8 12 9 13 10 14 11 15 12
REMARK SMILES IDX 16 13 2 15 1 16 3 17 42 20 37 22 34 23 35 24 36 25 38 27
REMARK SMILES IDX 39 28 40 29 41 30 17 31 18 32 22 33 19 34 21 35 20 36 23 37
REMARK SMILES IDX 24 38 30 39 25 40 29 41 26 42 27 43 28 44 31 45 32 46 33 48
REMARK H PARENT 10 14 1 18 1 19 42 21 32 47
REMARK Flexibility Score:   57.900
ROOT
ATOM      1  C   UNL     1      34.485  11.734  -2.359  1.00  0.00     0.082 A
ATOM      2  C   UNL     1      34.101  10.468  -2.778  1.00  0.00     0.129 A
ATOM      3  N   UNL     1      33.176  10.215  -3.741  1.00  0.00    -0.238 NA
ATOM      4  C   UNL     1      32.553  11.246  -4.355  1.00  0.00     0.136 A
ATOM      5  C   UNL     1      32.962  12.567  -4.062  1.00  0.00     0.051 A
ATOM      6  C   UNL     1      33.853  12.794  -3.011  1.00  0.00     0.065 A
ATOM      7  N   UNL     1      33.844  14.153  -2.770  1.00  0.00    -0.354 N
ATOM      8  C   UNL     1      33.022  14.800  -3.661  1.00  0.00     0.047 A
ATOM      9  C   UNL     1      32.532  16.115  -3.674  1.00  0.00     0.037 A
ATOM     10  C   UNL     1      31.576  16.444  -4.658  1.00  0.00     0.004 A
ATOM     11  C   UNL     1      31.373  15.560  -5.736  1.00  0.00     0.011 A
ATOM     12  C   UNL     1      31.874  14.260  -5.707  1.00  0.00     0.012 A
ATOM     13  C   UNL     1      32.610  13.846  -4.586  1.00  0.00     0.011 A
ATOM     14  H   UNL     1      34.283  14.594  -1.974  1.00  0.00     0.167 HD
ENDROOT
BRANCH   1  15
ATOM     15  C   UNL     1      35.472  11.889  -1.283  1.00  0.00     0.252 C
ATOM     16  N   UNL     1      36.018  10.743  -0.773  1.00  0.00    -0.365 N
ATOM     17  O   UNL     1      35.763  12.989  -0.837  1.00  0.00    -0.269 OA
ATOM     18  H   UNL     1      36.675  10.847  -0.010  1.00  0.00     0.159 HD
ATOM     19  H   UNL     1      35.671   9.818  -0.986  1.00  0.00     0.159 HD
ENDBRANCH   1  15
BRANCH   4  20
ATOM     20  N   UNL     1      31.501  10.953  -5.216  1.00  0.00    -0.358 N
ATOM     21  H   UNL     1      31.847  10.247  -5.869  1.00  0.00     0.162 HD
BRANCH  20  22
ATOM     22  C   UNL     1      30.228  10.450  -4.595  1.00  0.00     0.194 C
BRANCH  22  23
ATOM     23  C   UNL     1      29.810   9.022  -5.074  1.00  0.00     0.012 C
ATOM     24  C   UNL     1      29.345   8.839  -6.517  1.00  0.00     0.011 C
ATOM     25  C   UNL     1      28.345   8.726  -5.409  1.00  0.00     0.011 C
ATOM     26  G   UNL     1      30.598   7.910  -4.367  1.00  0.00     0.000 C
ENDBRANCH  22  23
BRANCH  22  27
ATOM     27  C   UNL     1      29.091  11.513  -4.521  1.00  0.00     0.409 C
ATOM     28  F   UNL     1      27.844  11.004  -4.482  1.00  0.00    -0.169 F
ATOM     29  F   UNL     1      29.241  12.292  -3.417  1.00  0.00    -0.169 F
ATOM     30  F   UNL     1      29.166  12.356  -5.585  1.00  0.00    -0.169 F
ENDBRANCH  22  27
ENDBRANCH  20  22
ENDBRANCH   4  20
BRANCH  10  31
ATOM     31  C   UNL     1      30.523  17.446  -4.374  1.00  0.00     0.093 A
ATOM     32  C   UNL     1      30.569  18.740  -4.871  1.00  0.00     0.035 A
ATOM     33  N   UNL     1      29.330  16.861  -4.137  1.00  0.00    -0.148 NA
ATOM     34  C   UNL     1      29.414  19.249  -5.470  1.00  0.00     0.051 A
ATOM     35  N   UNL     1      28.218  17.350  -4.742  1.00  0.00    -0.132 NA
ATOM     36  C   UNL     1      28.288  18.438  -5.535  1.00  0.00     0.151 A
BRANCH  36  37
ATOM     37  N   UNL     1      27.408  18.518  -6.610  1.00  0.00    -0.349 N
ATOM     38  C   UNL     1      27.064  19.771  -7.258  1.00  0.00     0.134 C
ATOM     39  C   UNL     1      26.944  17.205  -7.135  1.00  0.00     0.112 C
ATOM     40  C   UNL     1      27.287  19.655  -8.744  1.00  0.00     0.158 C
ATOM     41  C   UNL     1      25.781  17.353  -8.104  1.00  0.00     0.163 C
ATOM     42  S   UNL     1      26.133  18.489  -9.424  1.00  0.00     0.154 S
ATOM     43  O   UNL     1      24.910  19.217  -9.708  1.00  0.00    -0.229 OA
ATOM     44  O   UNL     1      26.816  17.775 -10.486  1.00  0.00    -0.229 OA
BRANCH  39  45
ATOM     45  C   UNL     1      28.130  16.363  -7.736  1.00  0.00     0.107 C
BRANCH  45  46
ATOM     46  N   UNL     1      28.184  14.992  -7.196  1.00  0.00    -0.314 NA
ATOM     47  H   UNL     1      29.170  14.726  -7.148  1.00  0.00     0.122 HD
BRANCH  46  48
ATOM     48  C   UNL     1      27.513  14.034  -8.095  1.00  0.00     0.090 C
ATOM     49  G   UNL     1      26.567  13.049  -7.393  1.00  0.00     0.000 C
ENDBRANCH  46  48
ENDBRANCH  45  46
ENDBRANCH  39  45
ENDBRANCH  36  37
ENDBRANCH  10  31
TORSDOF 2
ENDMDL
