REMARK SMILES O=C1Nc2c[nH]nc2-c2nc3ccc(cc3[nH]2)CN2CCOC[C@@H]2CCNCCC2(CC2)N1
REMARK SMILES IDX 18 1 14 2 9 3 10 4 17 5 11 6 16 7 12 8 15 9 13 10 8 12 4 13
REMARK SMILES IDX 5 14 6 15 7 16 3 18 1 19 2 20 33 21 30 24 31 25 32 26 29 27
REMARK SMILES IDX 19 29 20 30 24 31 21 32 23 33 22 34 25 35 26 36 27 37 28 39
REMARK H PARENT 17 11 6 17 3 22 33 23 27 38
REMARK Flexibility Score:  107.900
ROOT
ATOM      1  C   UNL     1       4.184  -1.252   0.020  1.00  0.00     0.120 C 
ENDROOT
BRANCH   1   2
ATOM      2  C   UNL     1       2.990  -2.075  -0.425  1.00  0.00    -0.032 A 
ATOM      3  C   UNL     1      -1.177  -3.540   0.226  1.00  0.00     0.161 A 
ATOM      4  N   UNL     1      -0.943  -3.087  -0.992  1.00  0.00    -0.227 NA
ATOM      5  N   UNL     1      -0.015  -3.847   0.883  1.00  0.00    -0.337 N 
ATOM      6  C   UNL     1       0.412  -2.897  -1.036  1.00  0.00     0.089 A 
ATOM      7  C   UNL     1       0.994  -3.227   0.183  1.00  0.00     0.066 A 
ATOM      8  C   UNL     1       1.193  -2.335  -2.054  1.00  0.00     0.031 A 
ATOM      9  C   UNL     1       2.287  -2.838   0.531  1.00  0.00     0.033 A 
ATOM     10  C   UNL     1       2.490  -1.923  -1.730  1.00  0.00     0.007 A 
ATOM     11  H   UNL     1       0.020  -4.133   1.851  1.00  0.00     0.168 HD
BRANCH   3  12
ATOM     12  C   UNL     1      -2.568  -3.498   0.926  1.00  0.00     0.151 A 
ATOM     13  C   UNL     1      -3.577  -2.579   0.541  1.00  0.00     0.092 A 
ATOM     14  C   UNL     1      -4.577  -2.766   1.459  1.00  0.00     0.132 A 
ATOM     15  N   UNL     1      -4.125  -3.727   2.319  1.00  0.00    -0.283 N 
ATOM     16  N   UNL     1      -2.861  -4.133   2.067  1.00  0.00    -0.170 NA
ATOM     17  H   UNL     1      -4.603  -4.109   3.128  1.00  0.00     0.189 HD
BRANCH  13  18
ATOM     18  N   UNL     1      -3.421  -1.615  -0.438  1.00  0.00    -0.304 N 
ATOM     19  O   UNL     1      -5.122  -0.147   0.141  1.00  0.00    -0.248 OA
ATOM     20  C   UNL     1      -4.088  -0.409  -0.464  1.00  0.00     0.319 C 
ATOM     21  N   UNL     1      -3.361   0.534  -1.176  1.00  0.00    -0.332 N 
ATOM     22  H   UNL     1      -2.591  -1.724  -1.013  1.00  0.00     0.172 HD
ATOM     23  H   UNL     1      -2.465   0.266  -1.563  1.00  0.00     0.165 HD
BRANCH  21  24
ATOM     24  C   UNL     1      -3.614   1.952  -1.085  1.00  0.00     0.043 C 
ATOM     25  C   UNL     1      -3.628   2.755  -2.371  1.00  0.00     0.031 C 
ATOM     26  C   UNL     1      -4.913   2.501  -1.644  1.00  0.00     0.031 C 
BRANCH  24  27
ATOM     27  C   UNL     1      -3.055   2.613   0.174  1.00  0.00     0.044 CG0
ATOM     28  G   UNL     1      -1.545   2.915   0.134  1.00  0.00     0.000 G0
ENDBRANCH  24  27
ENDBRANCH  21  24
ENDBRANCH  13  18
ENDBRANCH   3  12
ENDBRANCH   1   2
BRANCH   1  29
ATOM     29  N   UNL     1       3.774  -0.006   0.731  1.00  0.00    -0.292 NA
ATOM     30  C   UNL     1       4.936   0.583   1.432  1.00  0.00     0.113 C 
ATOM     31  C   UNL     1       3.147   1.012  -0.190  1.00  0.00     0.084 C 
ATOM     32  C   UNL     1       5.771   1.512   0.538  1.00  0.00     0.175 C 
ATOM     33  C   UNL     1       3.611   2.461   0.113  1.00  0.00     0.179 C 
ATOM     34  O   UNL     1       5.032   2.620   0.004  1.00  0.00    -0.378 OA
BRANCH  31  35
ATOM     35  C   UNL     1       1.595   0.851  -0.229  1.00  0.00     0.037 C 
BRANCH  35  36
ATOM     36  C   UNL     1       0.728   2.054   0.189  1.00  0.00     0.082 C 
BRANCH  36  37
ATOM     37  N   UNL     1      -0.696   1.722  -0.008  1.00  0.00    -0.317 NA
ATOM     38  H   UNL     1      -0.976   1.017   0.678  1.00  0.00     0.122 HD
BRANCH  37  39
ATOM     39  C   UNL     1      -1.545   2.915   0.134  1.00  0.00     0.083 CG0
ATOM     40  G   UNL     1      -3.055   2.613   0.174  1.00  0.00     0.000 G0
ENDBRANCH  37  39
ENDBRANCH  36  37
ENDBRANCH  35  36
ENDBRANCH  31  35
ENDBRANCH   1  29
TORSDOF 0
