REMARK SMILES Fc1cc2cc(F)c1CN1CCOC[C@H]1COCC1(CCNCC1)n1cc(cn1)-c1cnc3cccc-2c3n1
REMARK SMILES IDX 1 1 2 2 3 3 4 4 5 5 6 6 7 7 8 8 9 9 10 10 11 11 15 12 12 13
REMARK SMILES IDX 14 14 13 15 16 16 17 17 18 18 37 20 36 21 38 22 35 23 39 24
REMARK SMILES IDX 33 25 34 26 30 27 32 28 31 29 27 30 26 31 28 32 25 33 29 34
REMARK SMILES IDX 19 35 20 36 24 37 21 38 23 39 22 40
REMARK H PARENT 22 41
REMARK Flexibility Score:   78.900
ROOT
ATOM      1  F   UNL     1       3.285   0.804  -2.487  1.00  0.00    -0.207 F 
ATOM      2  C   UNL     1       3.347   0.361  -1.223  1.00  0.00     0.131 A 
ATOM      3  C   UNL     1       3.483  -1.010  -1.007  1.00  0.00     0.048 A 
ATOM      4  C   UNL     1       3.514  -1.523   0.297  1.00  0.00    -0.010 A 
ATOM      5  C   UNL     1       3.464  -0.620   1.367  1.00  0.00     0.048 A 
ATOM      6  C   UNL     1       3.326   0.749   1.130  1.00  0.00     0.131 A 
ATOM      7  F   UNL     1       3.271   1.572   2.187  1.00  0.00    -0.207 F 
ATOM      8  C   UNL     1       3.222   1.261  -0.165  1.00  0.00     0.038 A 
ENDROOT
BRANCH   8   9
ATOM      9  C   UNL     1       2.979   2.726  -0.419  1.00  0.00     0.126 C 
BRANCH   9  10
ATOM     10  N   UNL     1       1.741   3.253   0.198  1.00  0.00    -0.289 NA
ATOM     11  C   UNL     1       1.843   4.727   0.371  1.00  0.00     0.114 C 
ATOM     12  C   UNL     1       0.481   2.943  -0.537  1.00  0.00     0.108 C 
ATOM     13  C   UNL     1       0.935   5.569  -0.544  1.00  0.00     0.175 C 
ATOM     14  C   UNL     1       0.358   3.702  -1.886  1.00  0.00     0.181 C 
ATOM     15  O   UNL     1       0.911   5.029  -1.864  1.00  0.00    -0.378 OA
BRANCH  12  16
ATOM     16  C   UNL     1       0.161   1.448  -0.742  1.00  0.00     0.181 C 
BRANCH  16  17
ATOM     17  O   UNL     1      -1.226   1.199  -1.009  1.00  0.00    -0.377 OA
BRANCH  17  18
ATOM     18  C   UNL     1      -2.053   1.197   0.162  1.00  0.00     0.191 CG0
ATOM     19  G   UNL     1      -3.167   0.107   0.069  1.00  0.00     0.000 G0
ENDBRANCH  17  18
ENDBRANCH  16  17
ENDBRANCH  12  16
ENDBRANCH   9  10
ENDBRANCH   8   9
BRANCH   4  20
ATOM     20  C   UNL     1       3.515  -2.976   0.529  1.00  0.00     0.010 A 
ATOM     21  C   UNL     1       4.729  -3.658   0.702  1.00  0.00     0.011 A 
ATOM     22  C   UNL     1       2.299  -3.686   0.557  1.00  0.00     0.097 A 
ATOM     23  C   UNL     1       4.737  -5.034   0.894  1.00  0.00     0.003 A 
ATOM     24  N   UNL     1       1.124  -3.035   0.406  1.00  0.00    -0.244 NA
ATOM     25  C   UNL     1       2.314  -5.090   0.740  1.00  0.00     0.089 A 
ATOM     26  C   UNL     1       3.532  -5.736   0.907  1.00  0.00     0.030 A 
ATOM     27  C   UNL     1      -0.019  -3.760   0.414  1.00  0.00     0.092 A 
ATOM     28  N   UNL     1       1.175  -5.815   0.752  1.00  0.00    -0.252 NA
ATOM     29  C   UNL     1       0.016  -5.131   0.581  1.00  0.00     0.140 A 
BRANCH  27  30
ATOM     30  C   UNL     1      -1.242  -3.009   0.229  1.00  0.00     0.040 A 
ATOM     31  C   UNL     1      -1.338  -1.652   0.453  1.00  0.00     0.119 A 
ATOM     32  C   UNL     1      -2.534  -3.369  -0.195  1.00  0.00     0.145 A 
ATOM     33  N   UNL     1      -2.590  -1.261   0.074  1.00  0.00    -0.264 N 
ATOM     34  N   UNL     1      -3.366  -2.325  -0.258  1.00  0.00    -0.180 NA
BRANCH  33  35
ATOM     35  C   UNL     1      -3.167   0.107   0.069  1.00  0.00     0.088 CG0
ATOM     36  C   UNL     1      -3.965   0.342  -1.245  1.00  0.00     0.048 C 
ATOM     37  C   UNL     1      -4.093   0.229   1.309  1.00  0.00     0.048 C 
ATOM     38  C   UNL     1      -5.455   0.091  -1.046  1.00  0.00     0.083 C 
ATOM     39  C   UNL     1      -5.188   1.268   1.098  1.00  0.00     0.083 C 
ATOM     40  N   UNL     1      -6.031   1.016  -0.067  1.00  0.00    -0.317 NA
ATOM     41  H   UNL     1      -6.940   0.656   0.226  1.00  0.00     0.122 HD
ATOM     42  G   UNL     1      -2.053   1.197   0.162  1.00  0.00     0.000 G0
ENDBRANCH  33  35
ENDBRANCH  27  30
ENDBRANCH   4  20
TORSDOF 0
