REMARK SMILES O=C1Nc2c[nH]nc2-c2nc3ccc(cc3[nH]2)CN2CCOC[C@H]2CCSCCCC2(CC2)N1
REMARK SMILES IDX 9 1 10 2 11 3 12 4 13 5 14 6 15 7 16 8 17 9 8 11 4 12 5 13
REMARK SMILES IDX 6 14 7 15 3 17 1 18 2 19 34 20 31 23 32 24 33 25 30 26 29 27
REMARK SMILES IDX 18 29 19 30 20 31 24 32 21 33 23 34 22 35 25 36 26 37 27 38
REMARK SMILES IDX 28 39
REMARK H PARENT 17 10 6 16 3 21 34 22
REMARK Flexibility Score:   58.900
ROOT
ATOM      1  C   UNL     1       0.766  -3.990  -0.211  1.00  0.00     0.161 A 
ATOM      2  N   UNL     1      -0.149  -4.583  -0.954  1.00  0.00    -0.227 NA
ATOM      3  C   UNL     1      -1.301  -3.860  -0.731  1.00  0.00     0.089 A 
ATOM      4  C   UNL     1      -2.536  -3.886  -1.393  1.00  0.00     0.031 A 
ATOM      5  C   UNL     1      -3.497  -2.917  -1.057  1.00  0.00     0.007 A 
ATOM      6  C   UNL     1      -3.257  -1.963  -0.051  1.00  0.00    -0.032 A 
ATOM      7  C   UNL     1      -2.072  -2.019   0.702  1.00  0.00     0.033 A 
ATOM      8  C   UNL     1      -1.115  -2.942   0.294  1.00  0.00     0.066 A 
ATOM      9  N   UNL     1       0.164  -3.166   0.704  1.00  0.00    -0.337 N 
ATOM     10  H   UNL     1       0.629  -2.717   1.477  1.00  0.00     0.168 HD
ENDROOT
BRANCH   1  11
ATOM     11  C   UNL     1       2.327  -4.100  -0.349  1.00  0.00     0.151 A 
ATOM     12  C   UNL     1       3.250  -3.082   0.049  1.00  0.00     0.092 A 
ATOM     13  C   UNL     1       4.484  -3.626  -0.202  1.00  0.00     0.132 A 
ATOM     14  N   UNL     1       4.253  -4.834  -0.793  1.00  0.00    -0.283 N 
ATOM     15  N   UNL     1       2.950  -5.130  -0.931  1.00  0.00    -0.170 NA
ATOM     16  H   UNL     1       4.935  -5.497  -1.148  1.00  0.00     0.189 HD
BRANCH  12  17
ATOM     17  N   UNL     1       2.947  -1.800   0.486  1.00  0.00    -0.304 N 
ATOM     18  O   UNL     1       5.048  -0.806   0.552  1.00  0.00    -0.248 OA
ATOM     19  C   UNL     1       3.836  -0.770   0.715  1.00  0.00     0.319 C 
ATOM     20  N   UNL     1       3.144   0.361   1.135  1.00  0.00    -0.332 N 
ATOM     21  H   UNL     1       1.984  -1.520   0.421  1.00  0.00     0.172 HD
ATOM     22  H   UNL     1       2.188   0.264   1.438  1.00  0.00     0.165 HD
BRANCH  20  23
ATOM     23  C   UNL     1       3.730   1.671   1.232  1.00  0.00     0.042 C 
ATOM     24  C   UNL     1       4.838   1.902   2.237  1.00  0.00     0.031 C 
ATOM     25  C   UNL     1       3.478   2.469   2.498  1.00  0.00     0.031 C 
BRANCH  23  26
ATOM     26  C   UNL     1       3.812   2.436  -0.080  1.00  0.00     0.029 C 
BRANCH  26  27
ATOM     27  C   UNL     1       2.482   2.532  -0.846  1.00  0.00     0.013 CG0
ATOM     28  G   UNL     1       1.391   3.267  -0.066  1.00  0.00     0.000 G0
ENDBRANCH  26  27
ENDBRANCH  23  26
ENDBRANCH  20  23
ENDBRANCH  12  17
ENDBRANCH   1  11
BRANCH   6  29
ATOM     29  C   UNL     1      -4.263  -0.854   0.217  1.00  0.00     0.120 C 
BRANCH  29  30
ATOM     30  N   UNL     1      -3.624   0.470   0.439  1.00  0.00    -0.292 NA
ATOM     31  C   UNL     1      -4.641   1.448   0.889  1.00  0.00     0.113 C 
ATOM     32  C   UNL     1      -2.935   0.966  -0.785  1.00  0.00     0.083 C 
ATOM     33  C   UNL     1      -5.314   2.275  -0.221  1.00  0.00     0.175 C 
ATOM     34  C   UNL     1      -3.913   1.414  -1.913  1.00  0.00     0.179 C 
ATOM     35  O   UNL     1      -5.267   1.597  -1.474  1.00  0.00    -0.378 OA
BRANCH  32  36
ATOM     36  C   UNL     1      -1.933   2.087  -0.389  1.00  0.00     0.032 C 
BRANCH  36  37
ATOM     37  C   UNL     1      -0.882   2.340  -1.477  1.00  0.00     0.071 C 
BRANCH  37  38
ATOM     38  S   UNL     1       0.055   3.873  -1.156  1.00  0.00    -0.162 SA
BRANCH  38  39
ATOM     39  C   UNL     1       1.391   3.267  -0.066  1.00  0.00     0.069 CG0
ATOM     40  G   UNL     1       2.482   2.532  -0.846  1.00  0.00     0.000 G0
ENDBRANCH  38  39
ENDBRANCH  37  38
ENDBRANCH  36  37
ENDBRANCH  32  36
ENDBRANCH  29  30
ENDBRANCH   6  29
TORSDOF 0
