REMARK SMILES N#C[C@H]1C[C@H]2CSCC3(CC3)c3cnc4[nH]cc(c4n3)C(=O)N[C@H](C3CC3)C(=O)N2C1
REMARK SMILES IDX 12 1 13 2 14 3 15 4 16 5 17 6 18 7 19 8 20 9 21 11 23 12
REMARK SMILES IDX 22 13 24 15 28 16 29 17 30 18 1 19 2 20 3 21 4 22 31 23 5 24
REMARK SMILES IDX 25 26 26 27 27 28 9 29 10 30 11 31 8 32 7 33 6 34
REMARK H PARENT 16 10 23 14
REMARK Flexibility Score:  122.900
ROOT
ATOM      1  C   UNL     1       2.832  -0.870   1.019  1.00  0.00     0.067 A 
ATOM      2  C   UNL     1       3.679  -1.181   2.095  1.00  0.00     0.138 A 
ATOM      3  N   UNL     1       3.312  -1.801   3.253  1.00  0.00    -0.235 NA
ATOM      4  C   UNL     1       1.987  -2.044   3.255  1.00  0.00     0.156 A 
ATOM      5  N   UNL     1       1.259  -2.598   4.271  1.00  0.00    -0.344 N 
ATOM      6  C   UNL     1      -0.075  -2.606   3.932  1.00  0.00     0.100 A 
ATOM      7  C   UNL     1      -0.209  -2.071   2.657  1.00  0.00     0.085 A 
ATOM      8  C   UNL     1       1.105  -1.750   2.227  1.00  0.00     0.120 A 
ATOM      9  N   UNL     1       1.517  -1.191   1.061  1.00  0.00    -0.246 NA
ATOM     10  H   UNL     1       1.655  -2.903   5.148  1.00  0.00     0.168 HD
ENDROOT
BRANCH   7  11
ATOM     11  C   UNL     1      -1.454  -1.815   1.946  1.00  0.00     0.255 C 
ATOM     12  N   UNL     1      -1.272  -1.384   0.658  1.00  0.00    -0.340 N 
ATOM     13  O   UNL     1      -2.556  -1.929   2.472  1.00  0.00    -0.269 OA
ATOM     14  H   UNL     1      -0.317  -1.341   0.300  1.00  0.00     0.164 HD
BRANCH  12  15
ATOM     15  C   UNL     1      -2.311  -0.792  -0.161  1.00  0.00     0.175 C 
BRANCH  15  16
ATOM     16  C   UNL     1      -1.541   0.103  -1.172  1.00  0.00     0.245 C 
ATOM     17  O   UNL     1      -0.867  -0.383  -2.087  1.00  0.00    -0.272 OA
BRANCH  16  18
ATOM     18  N   UNL     1      -1.496   1.466  -0.931  1.00  0.00    -0.336 N 
ATOM     19  N   UNL     1      -3.037   5.465   1.082  1.00  0.00    -0.198 NA
ATOM     20  C   UNL     1      -2.738   4.651   0.312  1.00  0.00     0.067 C 
ATOM     21  C   UNL     1      -2.373   3.627  -0.666  1.00  0.00     0.114 C 
ATOM     22  C   UNL     1      -0.938   3.767  -1.172  1.00  0.00     0.046 C 
ATOM     23  C   UNL     1      -2.384   2.227  -0.065  1.00  0.00     0.138 C 
ATOM     24  C   UNL     1      -0.594   2.354  -1.677  1.00  0.00     0.096 CG0
ATOM     25  G   UNL     1       0.914   2.012  -1.575  1.00  0.00     0.000 G0
ENDBRANCH  16  18
ENDBRANCH  15  16
BRANCH  15  26
ATOM     26  C   UNL     1      -3.186  -1.878  -0.735  1.00  0.00     0.021 C 
ATOM     27  C   UNL     1      -2.707  -2.863  -1.774  1.00  0.00     0.006 C 
ATOM     28  C   UNL     1      -3.747  -1.836  -2.136  1.00  0.00     0.006 C 
ENDBRANCH  15  26
ENDBRANCH  12  15
ENDBRANCH   7  11
BRANCH   1  29
ATOM     29  C   UNL     1       3.332  -0.137  -0.227  1.00  0.00     0.023 C 
ATOM     30  C   UNL     1       4.517  -0.751  -0.969  1.00  0.00     0.015 C 
ATOM     31  C   UNL     1       3.152  -0.822  -1.577  1.00  0.00     0.015 C 
BRANCH  29  32
ATOM     32  C   UNL     1       3.259   1.379  -0.171  1.00  0.00     0.083 C 
BRANCH  32  33
ATOM     33  S   UNL     1       1.594   2.047   0.127  1.00  0.00    -0.159 SA
BRANCH  33  34
ATOM     34  C   UNL     1       0.914   2.012  -1.575  1.00  0.00     0.094 CG0
ATOM     35  G   UNL     1      -0.594   2.354  -1.677  1.00  0.00     0.000 G0
ENDBRANCH  33  34
ENDBRANCH  32  33
ENDBRANCH  29  32
ENDBRANCH   1  29
TORSDOF 1
