REMARK SMILES N#CC1CN(C(=O)[C@@H]2NC(=O)c3c[nH]c4ncc(nc34)[C@]3(CCSCC[C@]24CC4)CC3)C1
REMARK SMILES IDX 12 1 13 2 14 3 15 4 16 5 17 6 18 7 19 8 20 9 10 11 9 12
REMARK SMILES IDX 11 13 8 15 6 16 1 17 2 18 3 19 4 20 32 21 5 22 7 23 27 24
REMARK SMILES IDX 28 25 29 26 26 27 21 29 30 30 31 31 22 32 23 33 24 34 25 35
REMARK H PARENT 14 10 9 14
REMARK Flexibility Score:   64.900
ROOT
ATOM      1  C   UNL     1      -0.177   1.207   2.590  1.00  0.00     0.085 A 
ATOM      2  C   UNL     1      -0.008   1.908   3.778  1.00  0.00     0.100 A 
ATOM      3  N   UNL     1       1.238   2.492   3.770  1.00  0.00    -0.344 N 
ATOM      4  C   UNL     1       1.880   2.180   2.605  1.00  0.00     0.156 A 
ATOM      5  N   UNL     1       3.128   2.539   2.254  1.00  0.00    -0.235 NA
ATOM      6  C   UNL     1       3.451   2.025   1.033  1.00  0.00     0.138 A 
ATOM      7  C   UNL     1       2.613   1.251   0.213  1.00  0.00     0.066 A 
ATOM      8  N   UNL     1       1.352   0.945   0.617  1.00  0.00    -0.246 NA
ATOM      9  C   UNL     1       1.014   1.410   1.846  1.00  0.00     0.120 A 
ATOM     10  H   UNL     1       1.644   3.051   4.507  1.00  0.00     0.168 HD
ENDROOT
BRANCH   1  11
ATOM     11  C   UNL     1      -1.340   0.417   2.213  1.00  0.00     0.255 C 
ATOM     12  N   UNL     1      -1.213  -0.215   1.000  1.00  0.00    -0.340 N 
ATOM     13  O   UNL     1      -2.342   0.341   2.915  1.00  0.00    -0.269 OA
ATOM     14  H   UNL     1      -0.360  -0.061   0.468  1.00  0.00     0.164 HD
BRANCH  12  15
ATOM     15  C   UNL     1      -2.229  -1.077   0.425  1.00  0.00     0.178 C 
BRANCH  15  16
ATOM     16  C   UNL     1      -2.577  -0.686  -1.039  1.00  0.00     0.245 C 
ATOM     17  N   UNL     1      -2.389   4.774  -2.587  1.00  0.00    -0.198 NA
ATOM     18  C   UNL     1      -2.841   3.775  -2.208  1.00  0.00     0.069 C 
ATOM     19  C   UNL     1      -3.399   2.533  -1.734  1.00  0.00     0.131 C 
ATOM     20  C   UNL     1      -3.056   1.291  -2.573  1.00  0.00     0.140 C 
ATOM     21  C   UNL     1      -2.643   1.875  -0.564  1.00  0.00     0.140 C 
ATOM     22  N   UNL     1      -2.711   0.645  -1.321  1.00  0.00    -0.338 N 
ATOM     23  O   UNL     1      -2.847  -1.528  -1.899  1.00  0.00    -0.272 OA
ENDBRANCH  15  16
BRANCH  15  24
ATOM     24  C   UNL     1      -1.771  -2.538   0.575  1.00  0.00     0.000 C 
ATOM     25  C   UNL     1      -2.067  -3.239   1.895  1.00  0.00     0.010 C 
ATOM     26  C   UNL     1      -2.874  -3.583   0.684  1.00  0.00     0.010 C 
BRANCH  24  27
ATOM     27  C   UNL     1      -0.514  -2.943  -0.207  1.00  0.00     0.020 CG0
ATOM     28  G   UNL     1       0.766  -2.903   0.632  1.00  0.00     0.000 G0
ENDBRANCH  24  27
ENDBRANCH  15  24
ENDBRANCH  12  15
ENDBRANCH   1  11
BRANCH   7  29
ATOM     29  C   UNL     1       3.047   0.651  -1.131  1.00  0.00     0.015 C 
ATOM     30  C   UNL     1       2.990   1.584  -2.333  1.00  0.00     0.014 C 
ATOM     31  C   UNL     1       4.316   1.081  -1.847  1.00  0.00     0.014 C 
BRANCH  29  32
ATOM     32  C   UNL     1       2.553  -0.779  -1.367  1.00  0.00     0.024 C 
BRANCH  32  33
ATOM     33  C   UNL     1       3.132  -1.770  -0.357  1.00  0.00     0.070 C 
BRANCH  33  34
ATOM     34  S   UNL     1       2.232  -3.358  -0.370  1.00  0.00    -0.162 SA
BRANCH  34  35
ATOM     35  C   UNL     1       0.766  -2.903   0.632  1.00  0.00     0.070 CG0
ATOM     36  G   UNL     1      -0.514  -2.943  -0.207  1.00  0.00     0.000 G0
ENDBRANCH  34  35
ENDBRANCH  33  34
ENDBRANCH  32  33
ENDBRANCH  29  32
ENDBRANCH   7  29
TORSDOF 1
