REMARK SMILES N#CC1CN(C(=O)[C@@H]2NC(=O)c3c[nH]c4ncc(nc34)C3(CC3)CNC[C@H]3C[C@H]32)C1
REMARK SMILES IDX 12 1 13 2 14 3 15 4 16 5 17 6 18 7 19 8 20 9 10 11 9 12
REMARK SMILES IDX 11 13 8 15 6 16 1 17 2 18 3 19 4 20 30 21 5 22 7 23 29 24
REMARK SMILES IDX 28 25 27 26 21 28 22 29 23 30 24 31 25 32 26 34
REMARK H PARENT 14 10 9 14 25 33
REMARK Flexibility Score:   64.900
ROOT
ATOM      1  C   UNL     1      -0.203   2.632  -0.069  1.00  0.00     0.085 A 
ATOM      2  C   UNL     1      -0.229   3.994  -0.340  1.00  0.00     0.100 A 
ATOM      3  N   UNL     1      -1.542   4.407  -0.377  1.00  0.00    -0.344 N 
ATOM      4  C   UNL     1      -2.364   3.333  -0.174  1.00  0.00     0.156 A 
ATOM      5  N   UNL     1      -3.709   3.327  -0.204  1.00  0.00    -0.235 NA
ATOM      6  C   UNL     1      -4.184   2.059  -0.013  1.00  0.00     0.138 A 
ATOM      7  C   UNL     1      -3.417   0.901   0.214  1.00  0.00     0.067 A 
ATOM      8  N   UNL     1      -2.070   1.000   0.273  1.00  0.00    -0.246 NA
ATOM      9  C   UNL     1      -1.556   2.232   0.047  1.00  0.00     0.120 A 
ATOM     10  H   UNL     1      -1.871   5.343  -0.566  1.00  0.00     0.168 HD
ENDROOT
BRANCH   1  11
ATOM     11  C   UNL     1       0.974   1.780  -0.003  1.00  0.00     0.255 C 
ATOM     12  N   UNL     1       0.748   0.545   0.562  1.00  0.00    -0.340 N 
ATOM     13  O   UNL     1       2.062   2.118  -0.458  1.00  0.00    -0.269 OA
ATOM     14  H   UNL     1      -0.184   0.338   0.910  1.00  0.00     0.164 HD
BRANCH  12  15
ATOM     15  C   UNL     1       1.700  -0.534   0.427  1.00  0.00     0.175 C 
BRANCH  15  16
ATOM     16  C   UNL     1       2.967  -0.209   1.266  1.00  0.00     0.245 C 
ATOM     17  N   UNL     1       7.655   1.243  -1.563  1.00  0.00    -0.198 NA
ATOM     18  C   UNL     1       6.908   0.560  -0.995  1.00  0.00     0.069 C 
ATOM     19  C   UNL     1       5.992  -0.308  -0.298  1.00  0.00     0.131 C 
ATOM     20  C   UNL     1       4.535  -0.280  -0.800  1.00  0.00     0.140 C 
ATOM     21  C   UNL     1       5.469   0.216   1.051  1.00  0.00     0.140 C 
ATOM     22  N   UNL     1       4.154  -0.187   0.592  1.00  0.00    -0.338 N 
ATOM     23  O   UNL     1       2.914   0.012   2.479  1.00  0.00    -0.272 OA
ENDBRANCH  15  16
BRANCH  15  24
ATOM     24  C   UNL     1       1.079  -1.831   0.907  1.00  0.00     0.026 C 
ATOM     25  C   UNL     1       1.225  -3.056   0.039  1.00  0.00     0.012 C 
ATOM     26  C   UNL     1      -0.158  -2.530   0.338  1.00  0.00     0.009 CG0
ATOM     27  G   UNL     1      -1.017  -1.963  -0.756  1.00  0.00     0.000 G0
ENDBRANCH  15  24
ENDBRANCH  12  15
ENDBRANCH   1  11
BRANCH   7  28
ATOM     28  C   UNL     1      -4.017  -0.510   0.390  1.00  0.00     0.027 C 
ATOM     29  C   UNL     1      -5.372  -0.639   1.083  1.00  0.00     0.016 C 
ATOM     30  C   UNL     1      -5.268  -0.900  -0.389  1.00  0.00     0.016 C 
BRANCH  28  31
ATOM     31  C   UNL     1      -2.999  -1.621   0.683  1.00  0.00     0.094 C 
BRANCH  31  32
ATOM     32  N   UNL     1      -2.438  -2.234  -0.529  1.00  0.00    -0.315 NA
ATOM     33  H   UNL     1      -2.960  -1.912  -1.341  1.00  0.00     0.122 HD
BRANCH  32  34
ATOM     34  C   UNL     1      -1.017  -1.963  -0.756  1.00  0.00     0.085 CG0
ATOM     35  G   UNL     1      -0.158  -2.530   0.338  1.00  0.00     0.000 G0
ENDBRANCH  32  34
ENDBRANCH  31  32
ENDBRANCH  28  31
ENDBRANCH   7  28
TORSDOF 1
