REMARK SMILES CN1CCN2c3ccc(cc3)-c3cnc4cccc(c4n3)-c3cc(F)c(c(F)c3)CN3CCOC[C@@H]3COC[C@H]2C1
REMARK SMILES IDX 22 1 23 2 24 3 25 4 26 5 27 6 28 7 29 8 19 9 12 10 13 11
REMARK SMILES IDX 21 12 14 13 20 14 15 15 16 16 18 17 17 18 9 19 6 20 7 21
REMARK SMILES IDX 11 22 8 23 10 24 5 25 2 26 3 27 41 28 4 29 40 30 1 31 30 33
REMARK SMILES IDX 31 34 32 35 36 36 33 37 35 38 34 39 37 40 38 41 39 42
REMARK H PARENT
REMARK Flexibility Score:   82.900
ROOT
ATOM      1  C   UNL     1       4.232   0.609   0.864  1.00  0.00    -0.010 A 
ATOM      2  C   UNL     1       4.143   1.497  -0.216  1.00  0.00     0.048 A 
ATOM      3  C   UNL     1       3.195   2.524  -0.213  1.00  0.00     0.131 A 
ATOM      4  F   UNL     1       3.159   3.354  -1.266  1.00  0.00    -0.207 F 
ATOM      5  C   UNL     1       2.306   2.699   0.849  1.00  0.00     0.038 A 
ATOM      6  C   UNL     1       2.447   1.851   1.947  1.00  0.00     0.131 A 
ATOM      7  F   UNL     1       1.652   2.004   3.016  1.00  0.00    -0.207 F 
ATOM      8  C   UNL     1       3.386   0.820   1.963  1.00  0.00     0.048 A 
ENDROOT
BRANCH   1   9
ATOM      9  C   UNL     1       5.099  -0.583   0.798  1.00  0.00     0.010 A 
ATOM     10  C   UNL     1       2.634  -3.167   0.268  1.00  0.00     0.089 A 
ATOM     11  C   UNL     1       3.443  -4.280   0.151  1.00  0.00     0.140 A 
ATOM     12  N   UNL     1       3.182  -1.955   0.507  1.00  0.00    -0.244 NA
ATOM     13  N   UNL     1       4.795  -4.220   0.269  1.00  0.00    -0.252 NA
ATOM     14  C   UNL     1       4.519  -1.849   0.604  1.00  0.00     0.097 A 
ATOM     15  C   UNL     1       5.332  -2.999   0.489  1.00  0.00     0.089 A 
ATOM     16  C   UNL     1       6.709  -2.852   0.596  1.00  0.00     0.030 A 
ATOM     17  C   UNL     1       6.493  -0.467   0.893  1.00  0.00     0.011 A 
ATOM     18  C   UNL     1       7.295  -1.600   0.799  1.00  0.00     0.003 A 
BRANCH  10  19
ATOM     19  C   UNL     1       1.181  -3.132   0.105  1.00  0.00     0.002 A 
ATOM     20  C   UNL     1      -1.577  -2.599  -0.399  1.00  0.00     0.037 A 
ATOM     21  C   UNL     1      -0.954  -2.157   0.770  1.00  0.00     0.026 A 
ATOM     22  C   UNL     1      -0.817  -3.410  -1.256  1.00  0.00     0.026 A 
ATOM     23  C   UNL     1       0.398  -2.405   1.014  1.00  0.00     0.012 A 
ATOM     24  C   UNL     1       0.539  -3.675  -1.013  1.00  0.00     0.012 A 
BRANCH  20  25
ATOM     25  N   UNL     1      -2.859  -2.200  -0.729  1.00  0.00    -0.364 N 
ATOM     26  N   UNL     1      -5.770  -1.603  -1.125  1.00  0.00    -0.302 NA
ATOM     27  C   UNL     1      -5.208  -2.949  -0.886  1.00  0.00     0.105 C 
ATOM     28  C   UNL     1      -4.705  -0.578  -1.188  1.00  0.00     0.111 C 
ATOM     29  C   UNL     1      -3.768  -3.135  -1.411  1.00  0.00     0.132 C 
ATOM     30  C   UNL     1      -3.414  -0.861  -0.356  1.00  0.00     0.122 CG0
ATOM     31  C   UNL     1      -6.772  -1.280  -0.111  1.00  0.00     0.105 C 
ATOM     32  G   UNL     1      -2.409   0.307  -0.609  1.00  0.00     0.000 G0
ENDBRANCH  20  25
ENDBRANCH  10  19
ENDBRANCH   1   9
BRANCH   5  33
ATOM     33  C   UNL     1       1.278   3.798   0.850  1.00  0.00     0.126 C 
BRANCH  33  34
ATOM     34  N   UNL     1       0.357   3.779  -0.302  1.00  0.00    -0.289 NA
ATOM     35  C   UNL     1      -0.005   5.175  -0.654  1.00  0.00     0.114 C 
ATOM     36  C   UNL     1      -0.874   2.936  -0.178  1.00  0.00     0.108 C 
ATOM     37  C   UNL     1      -1.353   5.287  -1.374  1.00  0.00     0.175 C 
ATOM     38  C   UNL     1      -2.080   3.767   0.333  1.00  0.00     0.181 C 
ATOM     39  O   UNL     1      -2.435   4.854  -0.541  1.00  0.00    -0.378 OA
BRANCH  36  40
ATOM     40  C   UNL     1      -0.758   1.601   0.593  1.00  0.00     0.181 C 
BRANCH  40  41
ATOM     41  O   UNL     1      -1.981   0.850   0.653  1.00  0.00    -0.378 OA
BRANCH  41  42
ATOM     42  C   UNL     1      -2.409   0.307  -0.609  1.00  0.00     0.186 CG0
ATOM     43  G   UNL     1      -3.414  -0.861  -0.356  1.00  0.00     0.000 G0
ENDBRANCH  41  42
ENDBRANCH  40  41
ENDBRANCH  36  40
ENDBRANCH  33  34
ENDBRANCH   5  33
TORSDOF 0
