REMARK SMILES CC(C)(C)[C@H]1NC(=O)c2c[nH]c3ncc(nc23)[C@]2(CC2)COC[C@@]2(C#N)CN(C2)C1=O
REMARK SMILES IDX 9 1 10 2 11 3 12 4 13 5 14 6 15 7 16 8 17 9 7 11 6 12 8 13
REMARK SMILES IDX 5 15 2 16 1 17 3 18 4 19 30 20 31 21 28 22 29 23 27 24 24 25
REMARK SMILES IDX 25 26 26 27 18 29 19 30 20 31 21 32 22 33 23 34
REMARK H PARENT 11 10 6 14
REMARK Flexibility Score:  106.900
ROOT
ATOM      1  C   UNL     1       0.097  -2.591  -0.411  1.00  0.00     0.085 A 
ATOM      2  C   UNL     1      -0.057  -3.941  -0.128  1.00  0.00     0.100 A 
ATOM      3  N   UNL     1       1.194  -4.473   0.111  1.00  0.00    -0.344 N 
ATOM      4  C   UNL     1       2.134  -3.480   0.060  1.00  0.00     0.156 A 
ATOM      5  N   UNL     1       3.442  -3.585   0.368  1.00  0.00    -0.235 NA
ATOM      6  C   UNL     1       4.046  -2.359   0.318  1.00  0.00     0.138 A 
ATOM      7  C   UNL     1       3.433  -1.153  -0.053  1.00  0.00     0.068 A 
ATOM      8  N   UNL     1       2.140  -1.144  -0.435  1.00  0.00    -0.246 NA
ATOM      9  C   UNL     1       1.484  -2.319  -0.321  1.00  0.00     0.120 A 
ATOM     10  H   UNL     1       1.403  -5.430   0.360  1.00  0.00     0.168 HD
ENDROOT
BRANCH   1  11
ATOM     11  C   UNL     1      -0.915  -1.579  -0.655  1.00  0.00     0.255 C 
ATOM     12  N   UNL     1      -1.933  -1.580   0.266  1.00  0.00    -0.340 N 
ATOM     13  O   UNL     1      -0.783  -0.736  -1.528  1.00  0.00    -0.269 OA
ATOM     14  H   UNL     1      -1.900  -2.302   0.975  1.00  0.00     0.164 HD
BRANCH  12  15
ATOM     15  C   UNL     1      -2.781  -0.424   0.579  1.00  0.00     0.177 C 
BRANCH  15  16
ATOM     16  C   UNL     1      -3.900   0.008  -0.427  1.00  0.00    -0.009 C 
ATOM     17  C   UNL     1      -4.947  -1.136  -0.507  1.00  0.00     0.013 C 
ATOM     18  C   UNL     1      -3.467   0.286  -1.871  1.00  0.00     0.013 C 
ATOM     19  C   UNL     1      -4.630   1.258   0.110  1.00  0.00     0.013 C 
ENDBRANCH  15  16
BRANCH  15  20
ATOM     20  C   UNL     1      -1.990   0.599   1.453  1.00  0.00     0.245 C 
ATOM     21  O   UNL     1      -1.879   0.362   2.666  1.00  0.00    -0.272 OA
BRANCH  20  22
ATOM     22  N   UNL     1      -1.319   1.660   0.935  1.00  0.00    -0.337 N 
ATOM     23  C   UNL     1      -0.972   2.195  -0.361  1.00  0.00     0.146 C 
ATOM     24  C   UNL     1      -0.421   2.584   1.639  1.00  0.00     0.146 C 
ATOM     25  C   UNL     1       0.345   2.691   0.302  1.00  0.00     0.116 CG0
ATOM     26  C   UNL     1       0.721   4.028  -0.098  1.00  0.00     0.075 C 
ATOM     27  N   UNL     1       0.974   5.112  -0.429  1.00  0.00    -0.197 NA
ATOM     28  G   UNL     1       1.483   1.673   0.165  1.00  0.00     0.000 G0
ENDBRANCH  20  22
ENDBRANCH  15  20
ENDBRANCH  12  15
ENDBRANCH   1  11
BRANCH   7  29
ATOM     29  C   UNL     1       4.106   0.214   0.062  1.00  0.00     0.038 C 
ATOM     30  C   UNL     1       4.512   0.921  -1.226  1.00  0.00     0.017 C 
ATOM     31  C   UNL     1       5.572   0.370  -0.329  1.00  0.00     0.017 C 
BRANCH  29  32
ATOM     32  C   UNL     1       3.566   1.070   1.211  1.00  0.00     0.173 C 
BRANCH  32  33
ATOM     33  O   UNL     1       2.688   2.135   0.793  1.00  0.00    -0.379 OA
BRANCH  33  34
ATOM     34  C   UNL     1       1.483   1.673   0.165  1.00  0.00     0.186 CG0
ATOM     35  G   UNL     1       0.345   2.691   0.302  1.00  0.00     0.000 G0
ENDBRANCH  33  34
ENDBRANCH  32  33
ENDBRANCH  29  32
ENDBRANCH   7  29
TORSDOF 1
