REMARK SMILES N#C[C@@H]1C[C@H]2COCC3(CC3)c3cnc4[nH]cc(c4n3)C(=O)N[C@H](C3CC3)C(=O)N2C1
REMARK SMILES IDX 12 1 13 2 14 3 15 4 16 5 17 6 18 7 19 8 20 9 21 11 23 12
REMARK SMILES IDX 22 13 24 15 28 16 29 17 30 18 1 19 2 20 3 21 4 22 31 23 5 24
REMARK SMILES IDX 25 26 26 27 27 28 9 29 10 30 11 31 8 32 7 33 6 34
REMARK H PARENT 16 10 23 14
REMARK Flexibility Score:  122.900
ROOT
ATOM      1  C   UNL     1       2.921  -1.431   0.083  1.00  0.00     0.068 A 
ATOM      2  C   UNL     1       3.840  -2.271   0.742  1.00  0.00     0.138 A 
ATOM      3  N   UNL     1       3.546  -3.292   1.604  1.00  0.00    -0.235 NA
ATOM      4  C   UNL     1       2.216  -3.381   1.783  1.00  0.00     0.156 A 
ATOM      5  N   UNL     1       1.559  -4.237   2.622  1.00  0.00    -0.344 N 
ATOM      6  C   UNL     1       0.207  -3.976   2.582  1.00  0.00     0.100 A 
ATOM      7  C   UNL     1      -0.016  -2.953   1.670  1.00  0.00     0.085 A 
ATOM      8  C   UNL     1       1.261  -2.597   1.159  1.00  0.00     0.120 A 
ATOM      9  N   UNL     1       1.593  -1.637   0.258  1.00  0.00    -0.246 NA
ATOM     10  H   UNL     1       2.020  -4.919   3.206  1.00  0.00     0.168 HD
ENDROOT
BRANCH   7  11
ATOM     11  C   UNL     1      -1.293  -2.324   1.357  1.00  0.00     0.255 C 
ATOM     12  N   UNL     1      -1.234  -1.510   0.261  1.00  0.00    -0.340 N 
ATOM     13  O   UNL     1      -2.297  -2.484   2.041  1.00  0.00    -0.269 OA
ATOM     14  H   UNL     1      -0.344  -1.454  -0.236  1.00  0.00     0.164 HD
BRANCH  12  15
ATOM     15  C   UNL     1      -2.255  -0.563  -0.140  1.00  0.00     0.175 C 
BRANCH  15  16
ATOM     16  C   UNL     1      -1.452   0.502  -0.932  1.00  0.00     0.245 C 
ATOM     17  O   UNL     1      -0.946   0.227  -2.025  1.00  0.00    -0.272 OA
BRANCH  16  18
ATOM     18  N   UNL     1      -1.204   1.715  -0.320  1.00  0.00    -0.334 N 
ATOM     19  N   UNL     1      -3.707   5.381   1.001  1.00  0.00    -0.198 NA
ATOM     20  C   UNL     1      -2.788   4.684   0.879  1.00  0.00     0.067 C 
ATOM     21  C   UNL     1      -1.628   3.803   0.727  1.00  0.00     0.114 C 
ATOM     22  C   UNL     1      -0.916   4.002  -0.621  1.00  0.00     0.048 C 
ATOM     23  C   UNL     1      -2.029   2.325   0.713  1.00  0.00     0.138 C 
ATOM     24  C   UNL     1      -0.221   2.658  -0.854  1.00  0.00     0.112 CG0
ATOM     25  G   UNL     1       1.147   2.615  -0.118  1.00  0.00     0.000 G0
ENDBRANCH  16  18
ENDBRANCH  15  16
BRANCH  15  26
ATOM     26  C   UNL     1      -3.275  -1.248  -1.008  1.00  0.00     0.021 C 
ATOM     27  C   UNL     1      -4.466  -1.948  -0.401  1.00  0.00     0.006 C 
ATOM     28  C   UNL     1      -4.660  -0.667  -1.163  1.00  0.00     0.006 C 
ENDBRANCH  15  26
ENDBRANCH  12  15
ENDBRANCH   7  11
BRANCH   1  29
ATOM     29  C   UNL     1       3.343  -0.260  -0.834  1.00  0.00     0.038 C 
ATOM     30  C   UNL     1       4.750   0.317  -0.763  1.00  0.00     0.017 C 
ATOM     31  C   UNL     1       4.363  -0.546  -1.928  1.00  0.00     0.017 C 
BRANCH  29  32
ATOM     32  C   UNL     1       2.232   0.739  -1.173  1.00  0.00     0.173 C 
BRANCH  32  33
ATOM     33  O   UNL     1       1.751   1.335   0.030  1.00  0.00    -0.378 OA
BRANCH  33  34
ATOM     34  C   UNL     1       1.147   2.615  -0.118  1.00  0.00     0.185 CG0
ATOM     35  G   UNL     1      -0.221   2.658  -0.854  1.00  0.00     0.000 G0
ENDBRANCH  33  34
ENDBRANCH  32  33
ENDBRANCH  29  32
ENDBRANCH   1  29
TORSDOF 1
