REMARK SMILES N#C[C@@H]1CCN(C(=O)[C@@H]2NC(=O)c3c[nH]c4ncc(nc34)[C@@H]3C[C@H]3COCC23CC3)C1
REMARK SMILES IDX 13 1 14 2 15 3 16 4 17 5 18 6 19 7 20 8 21 9 11 11 10 12
REMARK SMILES IDX 12 13 9 15 7 16 8 17 6 18 1 19 2 20 3 21 4 22 31 23 5 24
REMARK SMILES IDX 28 25 29 26 30 27 22 29 23 30 24 31 25 32 26 33 27 34
REMARK H PARENT 15 10 10 14
REMARK Flexibility Score:  106.900
ROOT
ATOM      1  C   UNL     1      -1.159   2.787  -1.208  1.00  0.00     0.085 A 
ATOM      2  C   UNL     1      -1.425   4.135  -1.399  1.00  0.00     0.100 A 
ATOM      3  N   UNL     1      -2.770   4.357  -1.153  1.00  0.00    -0.344 N 
ATOM      4  C   UNL     1      -3.377   3.181  -0.801  1.00  0.00     0.156 A 
ATOM      5  N   UNL     1      -4.665   2.974  -0.447  1.00  0.00    -0.235 NA
ATOM      6  C   UNL     1      -4.872   1.654  -0.125  1.00  0.00     0.137 A 
ATOM      7  C   UNL     1      -3.909   0.640  -0.175  1.00  0.00     0.063 A 
ATOM      8  N   UNL     1      -2.659   0.915  -0.581  1.00  0.00    -0.247 NA
ATOM      9  C   UNL     1      -2.402   2.207  -0.863  1.00  0.00     0.120 A 
ATOM     10  H   UNL     1      -3.244   5.248  -1.195  1.00  0.00     0.168 HD
ENDROOT
BRANCH   1  11
ATOM     11  C   UNL     1       0.113   2.069  -1.298  1.00  0.00     0.255 C 
ATOM     12  N   UNL     1      -0.004   0.740  -0.968  1.00  0.00    -0.339 N 
ATOM     13  O   UNL     1       1.171   2.604  -1.611  1.00  0.00    -0.269 OA
ATOM     14  H   UNL     1      -0.895   0.454  -0.566  1.00  0.00     0.164 HD
BRANCH  12  15
ATOM     15  C   UNL     1       1.081  -0.195  -0.776  1.00  0.00     0.180 C 
BRANCH  15  16
ATOM     16  C   UNL     1       1.451  -0.128   0.730  1.00  0.00     0.245 C 
ATOM     17  O   UNL     1       0.596  -0.215   1.616  1.00  0.00    -0.272 OA
BRANCH  16  18
ATOM     18  N   UNL     1       2.779   0.087   1.057  1.00  0.00    -0.340 N 
ATOM     19  N   UNL     1       6.282  -1.972   1.153  1.00  0.00    -0.198 NA
ATOM     20  C   UNL     1       5.771  -0.932   1.105  1.00  0.00     0.067 C 
ATOM     21  C   UNL     1       5.133   0.392   1.034  1.00  0.00     0.114 C 
ATOM     22  C   UNL     1       4.573   0.821   2.392  1.00  0.00     0.042 C 
ATOM     23  C   UNL     1       3.888   0.352   0.149  1.00  0.00     0.138 C 
ATOM     24  C   UNL     1       3.201   0.161   2.444  1.00  0.00     0.121 C 
ENDBRANCH  16  18
ENDBRANCH  15  16
BRANCH  15  25
ATOM     25  C   UNL     1       0.688  -1.611  -1.250  1.00  0.00     0.023 CG0
ATOM     26  C   UNL     1       1.346  -2.093  -2.538  1.00  0.00     0.013 C 
ATOM     27  C   UNL     1       1.764  -2.687  -1.228  1.00  0.00     0.013 C 
ATOM     28  G   UNL     1      -0.748  -2.084  -1.017  1.00  0.00     0.000 G0
ENDBRANCH  15  25
ENDBRANCH  12  15
ENDBRANCH   1  11
BRANCH   7  29
ATOM     29  C   UNL     1      -4.126  -0.807   0.186  1.00  0.00     0.045 C 
ATOM     30  C   UNL     1      -4.445  -1.326   1.560  1.00  0.00     0.017 C 
ATOM     31  C   UNL     1      -3.021  -1.395   1.075  1.00  0.00     0.025 C 
BRANCH  31  32
ATOM     32  C   UNL     1      -2.325  -2.660   0.685  1.00  0.00     0.164 C 
BRANCH  32  33
ATOM     33  O   UNL     1      -0.956  -2.385   0.358  1.00  0.00    -0.380 OA
BRANCH  33  34
ATOM     34  C   UNL     1      -0.748  -2.084  -1.017  1.00  0.00     0.169 CG0
ATOM     35  G   UNL     1       0.688  -1.611  -1.250  1.00  0.00     0.000 G0
ENDBRANCH  33  34
ENDBRANCH  32  33
ENDBRANCH  31  32
ENDBRANCH   7  29
TORSDOF 2
