REMARK SMILES N#C[C@]12CCCOCC[C@]3(CC3)c3cnc4[nH]cc(c4n3)C(=O)N[C@H](C3CC3)C(=O)N(C1)C2
REMARK SMILES IDX 13 1 14 2 15 3 16 4 17 5 18 6 19 7 20 8 21 9 22 11 24 12
REMARK SMILES IDX 23 13 25 15 29 16 30 17 31 18 1 19 2 20 3 21 33 22 32 23
REMARK SMILES IDX 4 24 26 26 27 27 28 28 10 29 12 30 11 31 9 32 8 33 7 34 6 35
REMARK SMILES IDX 5 36
REMARK H PARENT 17 10 24 14
REMARK Flexibility Score:  115.900
ROOT
ATOM      1  C   UNL     1      -2.919  -1.019   0.262  1.00  0.00     0.066 A 
ATOM      2  C   UNL     1      -3.957  -1.742  -0.351  1.00  0.00     0.138 A 
ATOM      3  N   UNL     1      -3.814  -2.878  -1.084  1.00  0.00    -0.235 NA
ATOM      4  C   UNL     1      -2.517  -3.225  -1.163  1.00  0.00     0.156 A 
ATOM      5  N   UNL     1      -2.011  -4.298  -1.841  1.00  0.00    -0.344 N 
ATOM      6  C   UNL     1      -0.643  -4.314  -1.720  1.00  0.00     0.100 A 
ATOM      7  C   UNL     1      -0.256  -3.238  -0.931  1.00  0.00     0.085 A 
ATOM      8  C   UNL     1      -1.450  -2.552  -0.582  1.00  0.00     0.120 A 
ATOM      9  N   UNL     1      -1.626  -1.424   0.160  1.00  0.00    -0.246 NA
ATOM     10  H   UNL     1      -2.577  -4.956  -2.358  1.00  0.00     0.168 HD
ENDROOT
BRANCH   7  11
ATOM     11  C   UNL     1       1.112  -2.896  -0.579  1.00  0.00     0.255 C 
ATOM     12  N   UNL     1       1.219  -1.899   0.355  1.00  0.00    -0.340 N 
ATOM     13  O   UNL     1       2.085  -3.442  -1.090  1.00  0.00    -0.269 OA
ATOM     14  H   UNL     1       0.366  -1.510   0.755  1.00  0.00     0.164 HD
BRANCH  12  15
ATOM     15  C   UNL     1       2.488  -1.349   0.790  1.00  0.00     0.175 C 
BRANCH  15  16
ATOM     16  C   UNL     1       2.222   0.148   1.040  1.00  0.00     0.245 C 
ATOM     17  O   UNL     1       1.661   0.582   2.049  1.00  0.00    -0.272 OA
BRANCH  16  18
ATOM     18  N   UNL     1       2.511   0.987  -0.002  1.00  0.00    -0.338 N 
ATOM     19  N   UNL     1       3.894   3.790  -2.950  1.00  0.00    -0.198 NA
ATOM     20  C   UNL     1       3.176   3.079  -2.379  1.00  0.00     0.073 C 
ATOM     21  C   UNL     1       2.275   2.193  -1.663  1.00  0.00     0.092 C 
ATOM     22  C   UNL     1       2.282   2.411  -0.126  1.00  0.00     0.143 C 
ATOM     23  C   UNL     1       2.926   0.802  -1.374  1.00  0.00     0.143 C 
BRANCH  21  24
ATOM     24  C   UNL     1       0.910   2.046  -2.370  1.00  0.00     0.028 CG0
ATOM     25  G   UNL     1       0.129   3.359  -2.542  1.00  0.00     0.000 G0
ENDBRANCH  21  24
ENDBRANCH  16  18
ENDBRANCH  15  16
BRANCH  15  26
ATOM     26  C   UNL     1       3.002  -2.171   1.945  1.00  0.00     0.021 C 
ATOM     27  C   UNL     1       3.754  -1.581   3.112  1.00  0.00     0.006 C 
ATOM     28  C   UNL     1       2.376  -2.151   3.319  1.00  0.00     0.006 C 
ENDBRANCH  15  26
ENDBRANCH  12  15
ENDBRANCH   7  11
BRANCH   1  29
ATOM     29  C   UNL     1      -3.206   0.269   1.028  1.00  0.00     0.016 C 
ATOM     30  C   UNL     1      -2.699   0.387   2.458  1.00  0.00     0.014 C 
ATOM     31  C   UNL     1      -4.164   0.203   2.211  1.00  0.00     0.014 C 
BRANCH  29  32
ATOM     32  C   UNL     1      -3.213   1.521   0.168  1.00  0.00     0.042 C 
BRANCH  32  33
ATOM     33  C   UNL     1      -1.818   2.114  -0.041  1.00  0.00     0.161 C 
BRANCH  33  34
ATOM     34  O   UNL     1      -1.865   2.954  -1.196  1.00  0.00    -0.381 OA
BRANCH  34  35
ATOM     35  C   UNL     1      -0.732   3.799  -1.356  1.00  0.00     0.160 C 
BRANCH  35  36
ATOM     36  C   UNL     1       0.129   3.359  -2.542  1.00  0.00     0.030 CG0
ATOM     37  G   UNL     1       0.910   2.046  -2.370  1.00  0.00     0.000 G0
ENDBRANCH  35  36
ENDBRANCH  34  35
ENDBRANCH  33  34
ENDBRANCH  32  33
ENDBRANCH  29  32
ENDBRANCH   1  29
TORSDOF 1
