REMARK SMILES N#C[C@H]1CCN(C(=O)[C@@H]2NC(=O)c3c[nH]c4ncc(nc34)C3(CC3)CNC[C@@H]3C[C@H]32)C1
REMARK SMILES IDX 13 1 14 2 15 3 16 4 17 5 18 6 19 7 20 8 21 9 11 11 10 12
REMARK SMILES IDX 12 13 9 15 7 16 8 17 6 18 1 19 2 20 3 21 4 22 31 23 5 24
REMARK SMILES IDX 30 25 29 26 28 27 22 29 23 30 24 31 25 32 26 33 27 35
REMARK H PARENT 15 10 10 14 26 34
REMARK Flexibility Score:  106.900
ROOT
ATOM      1  C   UNL     1      -0.536   2.613  -0.653  1.00  0.00     0.085 A 
ATOM      2  C   UNL     1      -0.563   3.922  -1.116  1.00  0.00     0.100 A 
ATOM      3  N   UNL     1      -1.873   4.347  -1.149  1.00  0.00    -0.344 N 
ATOM      4  C   UNL     1      -2.692   3.332  -0.741  1.00  0.00     0.156 A 
ATOM      5  N   UNL     1      -4.038   3.348  -0.698  1.00  0.00    -0.235 NA
ATOM      6  C   UNL     1      -4.514   2.139  -0.271  1.00  0.00     0.138 A 
ATOM      7  C   UNL     1      -3.745   1.024   0.106  1.00  0.00     0.067 A 
ATOM      8  N   UNL     1      -2.396   1.096   0.057  1.00  0.00    -0.246 NA
ATOM      9  C   UNL     1      -1.884   2.263  -0.396  1.00  0.00     0.120 A 
ATOM     10  H   UNL     1      -2.202   5.251  -1.456  1.00  0.00     0.168 HD
ENDROOT
BRANCH   1  11
ATOM     11  C   UNL     1       0.637   1.761  -0.523  1.00  0.00     0.255 C 
ATOM     12  N   UNL     1       0.384   0.535   0.042  1.00  0.00    -0.340 N 
ATOM     13  O   UNL     1       1.748   2.097  -0.924  1.00  0.00    -0.269 OA
ATOM     14  H   UNL     1      -0.560   0.326   0.368  1.00  0.00     0.164 HD
BRANCH  12  15
ATOM     15  C   UNL     1       1.369  -0.523   0.080  1.00  0.00     0.175 C 
BRANCH  15  16
ATOM     16  C   UNL     1       2.427  -0.195   1.171  1.00  0.00     0.245 C 
ATOM     17  O   UNL     1       2.101  -0.002   2.347  1.00  0.00    -0.272 OA
BRANCH  16  18
ATOM     18  N   UNL     1       3.752  -0.122   0.788  1.00  0.00    -0.340 N 
ATOM     19  N   UNL     1       8.268   0.296   2.087  1.00  0.00    -0.198 NA
ATOM     20  C   UNL     1       7.252   0.454   1.550  1.00  0.00     0.067 C 
ATOM     21  C   UNL     1       5.976   0.649   0.864  1.00  0.00     0.114 C 
ATOM     22  C   UNL     1       5.807  -0.273  -0.345  1.00  0.00     0.042 C 
ATOM     23  C   UNL     1       4.786   0.265   1.735  1.00  0.00     0.138 C 
ATOM     24  C   UNL     1       4.298  -0.301  -0.545  1.00  0.00     0.121 C 
ENDBRANCH  16  18
ENDBRANCH  15  16
BRANCH  15  25
ATOM     25  C   UNL     1       0.665  -1.827   0.386  1.00  0.00     0.026 C 
ATOM     26  C   UNL     1       0.840  -3.027  -0.516  1.00  0.00     0.012 C 
ATOM     27  C   UNL     1      -0.492  -2.320  -0.472  1.00  0.00     0.009 CG0
ATOM     28  G   UNL     1      -1.676  -2.982   0.170  1.00  0.00     0.000 G0
ENDBRANCH  15  25
ENDBRANCH  12  15
ENDBRANCH   1  11
BRANCH   7  29
ATOM     29  C   UNL     1      -4.338  -0.323   0.554  1.00  0.00     0.027 C 
ATOM     30  C   UNL     1      -4.843  -0.412   1.994  1.00  0.00     0.016 C 
ATOM     31  C   UNL     1      -5.824  -0.469   0.868  1.00  0.00     0.016 C 
BRANCH  29  32
ATOM     32  C   UNL     1      -3.629  -1.544  -0.048  1.00  0.00     0.094 C 
BRANCH  32  33
ATOM     33  N   UNL     1      -2.507  -1.963   0.799  1.00  0.00    -0.315 NA
ATOM     34  H   UNL     1      -2.876  -2.326   1.674  1.00  0.00     0.122 HD
BRANCH  33  35
ATOM     35  C   UNL     1      -1.676  -2.982   0.170  1.00  0.00     0.085 CG0
ATOM     36  G   UNL     1      -0.492  -2.320  -0.472  1.00  0.00     0.000 G0
ENDBRANCH  33  35
ENDBRANCH  32  33
ENDBRANCH  29  32
ENDBRANCH   7  29
TORSDOF 2
