REMARK SMILES Cc1cnc2nc1-c1cccc(c1)COCC=C1CCC[C@@H]3CCCN3CCOc3ccc(cc3COC1)N2
REMARK SMILES IDX 30 1 31 2 32 3 33 4 34 5 35 6 39 7 5 9 2 10 3 11 7 12 4 13
REMARK SMILES IDX 6 14 1 15 8 16 9 17 13 18 10 19 12 20 11 21 14 22 15 23
REMARK SMILES IDX 16 24 36 26 37 27 38 28 18 29 17 30 19 32 20 33 21 34 29 36
REMARK SMILES IDX 28 37 27 38 26 39 25 40 22 41 24 42 23 43
REMARK H PARENT 39 8
REMARK Flexibility Score:  100.800
ROOT
ATOM      1  C   UNL     1      -2.054   1.627  -1.640  1.00  0.00     0.125 A 
ATOM      2  C   UNL     1      -1.780   1.912  -2.979  1.00  0.00     0.049 A 
ATOM      3  C   UNL     1      -0.499   2.318  -3.374  1.00  0.00     0.030 A 
ATOM      4  C   UNL     1       0.541   2.449  -2.448  1.00  0.00     0.042 A 
ATOM      5  C   UNL     1       0.265   2.137  -1.116  1.00  0.00     0.036 A 
ATOM      6  C   UNL     1      -1.026   1.756  -0.692  1.00  0.00     0.022 A 
ENDROOT
BRANCH   4   7
ATOM      7  N   UNL     1       1.802   2.850  -2.895  1.00  0.00    -0.324 N 
ATOM      8  H   UNL     1       1.836   3.391  -3.746  1.00  0.00     0.170 HD
BRANCH   7   9
ATOM      9  C   UNL     1       3.070   2.798  -2.326  1.00  0.00     0.227 A 
ATOM     10  C   UNL     1       5.601   2.814  -1.306  1.00  0.00    -0.006 A 
ATOM     11  C   UNL     1       5.208   3.613  -2.358  1.00  0.00     0.120 A 
ATOM     12  C   UNL     1       4.626   1.941  -0.840  1.00  0.00     0.079 A 
ATOM     13  N   UNL     1       3.975   3.607  -2.892  1.00  0.00    -0.221 NA
ATOM     14  N   UNL     1       3.358   1.965  -1.316  1.00  0.00    -0.212 NA
ATOM     15  C   UNL     1       6.995   2.901  -0.778  1.00  0.00     0.048 C 
BRANCH  12  16
ATOM     16  C   UNL     1       4.875   0.895   0.173  1.00  0.00     0.001 A 
ATOM     17  C   UNL     1       5.936  -0.017   0.034  1.00  0.00     0.010 A 
ATOM     18  C   UNL     1       4.033   0.749   1.291  1.00  0.00     0.016 A 
ATOM     19  C   UNL     1       6.181  -1.002   0.992  1.00  0.00     0.001 A 
ATOM     20  C   UNL     1       4.262  -0.246   2.259  1.00  0.00    -0.022 A 
ATOM     21  C   UNL     1       5.352  -1.111   2.103  1.00  0.00     0.006 A 
BRANCH  20  22
ATOM     22  C   UNL     1       3.325  -0.410   3.431  1.00  0.00     0.196 C 
BRANCH  22  23
ATOM     23  O   UNL     1       2.020  -0.830   3.038  1.00  0.00    -0.373 OA
BRANCH  23  24
ATOM     24  C   UNL     1       1.994  -2.147   2.497  1.00  0.00     0.188 CG0
ATOM     25  G   UNL     1       0.577  -2.600   2.300  1.00  0.00     0.000 G0
ENDBRANCH  23  24
ENDBRANCH  22  23
ENDBRANCH  20  22
ENDBRANCH  12  16
ENDBRANCH   7   9
ENDBRANCH   4   7
BRANCH   6  26
ATOM     26  C   UNL     1      -1.253   1.499   0.779  1.00  0.00     0.200 C 
BRANCH  26  27
ATOM     27  O   UNL     1      -1.400   0.123   1.111  1.00  0.00    -0.372 OA
BRANCH  27  28
ATOM     28  C   UNL     1      -0.222  -0.652   0.894  1.00  0.00     0.191 C 
BRANCH  28  29
ATOM     29  C   UNL     1      -0.396  -1.989   1.590  1.00  0.00    -0.046 C 
ATOM     30  C   UNL     1       0.577  -2.600   2.300  1.00  0.00     0.003 CG0
ATOM     31  G   UNL     1       1.994  -2.147   2.497  1.00  0.00     0.000 G0
BRANCH  29  32
ATOM     32  C   UNL     1      -1.773  -2.623   1.476  1.00  0.00     0.033 C 
BRANCH  32  33
ATOM     33  C   UNL     1      -2.161  -2.972   0.032  1.00  0.00     0.006 C 
BRANCH  33  34
ATOM     34  C   UNL     1      -3.676  -2.983  -0.227  1.00  0.00     0.019 CG1
ATOM     35  G   UNL     1      -4.315  -1.585  -0.038  1.00  0.00     0.000 G1
ENDBRANCH  33  34
ENDBRANCH  32  33
ENDBRANCH  29  32
ENDBRANCH  28  29
ENDBRANCH  27  28
ENDBRANCH  26  27
ENDBRANCH   6  26
BRANCH   1  36
ATOM     36  O   UNL     1      -3.287   1.260  -1.170  1.00  0.00    -0.492 OA
BRANCH  36  37
ATOM     37  C   UNL     1      -4.216   0.734  -2.125  1.00  0.00     0.245 C 
BRANCH  37  38
ATOM     38  C   UNL     1      -5.438   0.122  -1.403  1.00  0.00     0.126 C 
BRANCH  38  39
ATOM     39  N   UNL     1      -5.302  -1.327  -1.113  1.00  0.00    -0.297 NA
ATOM     40  C   UNL     1      -6.562  -1.890  -0.607  1.00  0.00     0.085 C 
ATOM     41  C   UNL     1      -4.315  -1.585  -0.038  1.00  0.00     0.056 CG1
ATOM     42  C   UNL     1      -6.575  -1.614   0.884  1.00  0.00     0.017 C 
ATOM     43  C   UNL     1      -5.110  -1.476   1.270  1.00  0.00     0.020 C 
ATOM     44  G   UNL     1      -3.676  -2.983  -0.227  1.00  0.00     0.000 G1
ENDBRANCH  38  39
ENDBRANCH  37  38
ENDBRANCH  36  37
ENDBRANCH   1  36
TORSDOF 0
