REMARK SMILES O=C1Nc2c[nH]nc2-c2nc3ccc(cc3[nH]2)CN2CCOC[C@H]2CCCCCC2(CC2)N1
REMARK SMILES IDX 9 1 10 2 11 3 12 4 13 5 14 6 15 7 16 8 17 9 8 11 4 12 5 13
REMARK SMILES IDX 6 14 7 15 3 17 1 18 2 19 33 20 30 23 31 24 32 25 29 26 28 27
REMARK SMILES IDX 18 29 19 30 20 31 24 32 21 33 23 34 22 35 25 36 26 37 27 38
REMARK H PARENT 17 10 6 16 3 21 33 22
REMARK Flexibility Score:   58.900
ROOT
ATOM      1  C   UNL     1      -1.481   3.551   0.168  1.00  0.00     0.161 A 
ATOM      2  N   UNL     1      -0.491   4.410   0.362  1.00  0.00    -0.227 NA
ATOM      3  C   UNL     1       0.657   3.741   0.019  1.00  0.00     0.089 A 
ATOM      4  C   UNL     1       1.999   4.124   0.134  1.00  0.00     0.031 A 
ATOM      5  C   UNL     1       2.992   3.206  -0.245  1.00  0.00     0.007 A 
ATOM      6  C   UNL     1       2.667   1.942  -0.774  1.00  0.00    -0.032 A 
ATOM      7  C   UNL     1       1.320   1.586  -0.947  1.00  0.00     0.033 A 
ATOM      8  C   UNL     1       0.360   2.492  -0.500  1.00  0.00     0.066 A 
ATOM      9  N   UNL     1      -1.001   2.418  -0.425  1.00  0.00    -0.337 N 
ATOM     10  H   UNL     1      -1.568   1.656  -0.768  1.00  0.00     0.168 HD
ENDROOT
BRANCH   1  11
ATOM     11  C   UNL     1      -2.979   3.809   0.608  1.00  0.00     0.151 A 
ATOM     12  C   UNL     1      -4.088   2.913   0.785  1.00  0.00     0.092 A 
ATOM     13  C   UNL     1      -5.085   3.714   1.308  1.00  0.00     0.132 A 
ATOM     14  N   UNL     1      -4.578   4.972   1.383  1.00  0.00    -0.283 N 
ATOM     15  N   UNL     1      -3.308   5.054   0.999  1.00  0.00    -0.170 NA
ATOM     16  H   UNL     1      -5.033   5.819   1.709  1.00  0.00     0.189 HD
BRANCH  12  17
ATOM     17  N   UNL     1      -4.319   1.551   0.664  1.00  0.00    -0.304 N 
ATOM     18  O   UNL     1      -2.942   0.914  -1.070  1.00  0.00    -0.248 OA
ATOM     19  C   UNL     1      -3.643   0.641  -0.104  1.00  0.00     0.319 C 
ATOM     20  N   UNL     1      -3.854  -0.649   0.334  1.00  0.00    -0.332 N 
ATOM     21  H   UNL     1      -5.178   1.215   1.073  1.00  0.00     0.172 HD
ATOM     22  H   UNL     1      -4.273  -0.780   1.244  1.00  0.00     0.165 HD
BRANCH  20  23
ATOM     23  C   UNL     1      -3.380  -1.822  -0.357  1.00  0.00     0.042 C 
ATOM     24  C   UNL     1      -4.153  -2.285  -1.575  1.00  0.00     0.031 C 
ATOM     25  C   UNL     1      -4.254  -3.061  -0.298  1.00  0.00     0.031 C 
BRANCH  23  26
ATOM     26  C   UNL     1      -1.871  -2.047  -0.377  1.00  0.00     0.028 C 
BRANCH  26  27
ATOM     27  C   UNL     1      -1.238  -2.036   1.020  1.00  0.00     0.002 CG0
ATOM     28  G   UNL     1      -0.063  -3.013   1.166  1.00  0.00     0.000 G0
ENDBRANCH  26  27
ENDBRANCH  23  26
ENDBRANCH  20  23
ENDBRANCH  12  17
ENDBRANCH   1  11
BRANCH   6  29
ATOM     29  C   UNL     1       3.769   0.961  -1.125  1.00  0.00     0.120 C 
BRANCH  29  30
ATOM     30  N   UNL     1       3.847  -0.149  -0.159  1.00  0.00    -0.292 NA
ATOM     31  C   UNL     1       5.249  -0.484   0.151  1.00  0.00     0.113 C 
ATOM     32  C   UNL     1       3.068  -1.351  -0.568  1.00  0.00     0.083 C 
ATOM     33  C   UNL     1       5.361  -1.802   0.931  1.00  0.00     0.175 C 
ATOM     34  C   UNL     1       3.989  -2.563  -0.867  1.00  0.00     0.179 C 
ATOM     35  O   UNL     1       4.817  -2.934   0.238  1.00  0.00    -0.378 OA
BRANCH  32  36
ATOM     36  C   UNL     1       2.018  -1.647   0.535  1.00  0.00     0.021 C 
BRANCH  36  37
ATOM     37  C   UNL     1       1.097  -2.823   0.183  1.00  0.00     0.002 C 
BRANCH  37  38
ATOM     38  C   UNL     1      -0.063  -3.013   1.166  1.00  0.00     0.000 CG0
ATOM     39  G   UNL     1      -1.238  -2.036   1.020  1.00  0.00     0.000 G0
ENDBRANCH  37  38
ENDBRANCH  36  37
ENDBRANCH  32  36
ENDBRANCH  29  30
ENDBRANCH   6  29
TORSDOF 0
