REMARK SMILES N#C[C@@H]1CCN(C(=O)[C@@H]2NC(=O)c3c[nH]c4ncc(nc34)C3(CC3)CNC[C@@H]3C[C@H]32)C1
REMARK SMILES IDX 13 1 14 2 15 3 16 4 17 5 18 6 19 7 20 8 21 9 11 11 10 12
REMARK SMILES IDX 12 13 9 15 7 16 8 17 6 18 1 19 2 20 3 21 4 22 31 23 5 24
REMARK SMILES IDX 30 25 29 26 28 27 22 29 23 30 24 31 25 32 26 33 27 35
REMARK H PARENT 15 10 10 14 26 34
REMARK Flexibility Score:  106.900
ROOT
ATOM      1  C   UNL     1      -0.460   2.512  -0.854  1.00  0.00     0.085 A 
ATOM      2  C   UNL     1      -0.465   3.781  -1.419  1.00  0.00     0.100 A 
ATOM      3  N   UNL     1      -1.767   4.221  -1.494  1.00  0.00    -0.344 N 
ATOM      4  C   UNL     1      -2.605   3.254  -1.015  1.00  0.00     0.156 A 
ATOM      5  N   UNL     1      -3.951   3.291  -0.984  1.00  0.00    -0.235 NA
ATOM      6  C   UNL     1      -4.447   2.124  -0.470  1.00  0.00     0.138 A 
ATOM      7  C   UNL     1      -3.697   1.033  -0.000  1.00  0.00     0.067 A 
ATOM      8  N   UNL     1      -2.347   1.083  -0.041  1.00  0.00    -0.246 NA
ATOM      9  C   UNL     1      -1.815   2.204  -0.580  1.00  0.00     0.120 A 
ATOM     10  H   UNL     1      -2.080   5.104  -1.873  1.00  0.00     0.168 HD
ENDROOT
BRANCH   1  11
ATOM     11  C   UNL     1       0.698   1.654  -0.649  1.00  0.00     0.255 C 
ATOM     12  N   UNL     1       0.423   0.486   0.018  1.00  0.00    -0.340 N 
ATOM     13  O   UNL     1       1.813   1.932  -1.079  1.00  0.00    -0.269 OA
ATOM     14  H   UNL     1      -0.523   0.322   0.361  1.00  0.00     0.164 HD
BRANCH  12  15
ATOM     15  C   UNL     1       1.398  -0.572   0.158  1.00  0.00     0.175 C 
BRANCH  15  16
ATOM     16  C   UNL     1       2.427  -0.175   1.254  1.00  0.00     0.245 C 
ATOM     17  O   UNL     1       2.066   0.113   2.401  1.00  0.00    -0.272 OA
BRANCH  16  18
ATOM     18  N   UNL     1       3.767  -0.167   0.919  1.00  0.00    -0.340 N 
ATOM     19  N   UNL     1       6.493   2.856   0.249  1.00  0.00    -0.198 NA
ATOM     20  C   UNL     1       6.281   1.776   0.618  1.00  0.00     0.067 C 
ATOM     21  C   UNL     1       6.067   0.398   1.084  1.00  0.00     0.114 C 
ATOM     22  C   UNL     1       5.852  -0.566  -0.086  1.00  0.00     0.042 C 
ATOM     23  C   UNL     1       4.771   0.267   1.879  1.00  0.00     0.138 C 
ATOM     24  C   UNL     1       4.358  -0.469  -0.371  1.00  0.00     0.121 C 
ENDBRANCH  16  18
ENDBRANCH  15  16
BRANCH  15  25
ATOM     25  C   UNL     1       0.673  -1.847   0.534  1.00  0.00     0.026 C 
ATOM     26  C   UNL     1       0.840  -3.101  -0.292  1.00  0.00     0.012 C 
ATOM     27  C   UNL     1      -0.483  -2.376  -0.304  1.00  0.00     0.009 CG0
ATOM     28  G   UNL     1      -1.681  -2.982   0.364  1.00  0.00     0.000 G0
ENDBRANCH  15  25
ENDBRANCH  12  15
ENDBRANCH   1  11
BRANCH   7  29
ATOM     29  C   UNL     1      -4.311  -0.270   0.541  1.00  0.00     0.027 C 
ATOM     30  C   UNL     1      -4.824  -0.247   1.980  1.00  0.00     0.016 C 
ATOM     31  C   UNL     1      -5.801  -0.372   0.856  1.00  0.00     0.016 C 
BRANCH  29  32
ATOM     32  C   UNL     1      -3.616  -1.541   0.032  1.00  0.00     0.094 C 
BRANCH  32  33
ATOM     33  N   UNL     1      -2.509  -1.917   0.918  1.00  0.00    -0.315 NA
ATOM     34  H   UNL     1      -2.891  -2.220   1.810  1.00  0.00     0.122 HD
BRANCH  33  35
ATOM     35  C   UNL     1      -1.681  -2.982   0.364  1.00  0.00     0.085 CG0
ATOM     36  G   UNL     1      -0.483  -2.376  -0.304  1.00  0.00     0.000 G0
ENDBRANCH  33  35
ENDBRANCH  32  33
ENDBRANCH  29  32
ENDBRANCH   7  29
TORSDOF 2
