REMARK SMILES Fc1cc2cc(F)c1CN1CCO[C@H](CNCC3(CCNCC3)n3cc(cn3)-c3cnc4cccc-2c4n3)C1
REMARK SMILES IDX 1 1 2 2 3 3 4 4 5 5 6 6 7 7 8 8 9 9 10 10 11 11 39 12 12 13
REMARK SMILES IDX 14 14 13 15 15 16 16 17 17 19 36 21 35 22 37 23 34 24 38 25
REMARK SMILES IDX 32 26 33 27 29 28 31 29 30 30 26 31 25 32 27 33 24 34 28 35
REMARK SMILES IDX 18 36 19 37 23 38 20 39 22 40 21 41
REMARK H PARENT 16 18 21 42
REMARK Flexibility Score:   78.900
ROOT
ATOM      1  F   UNL     1       3.490  -1.732  -1.825  1.00  0.00    -0.207 F 
ATOM      2  C   UNL     1       3.571  -1.005  -0.701  1.00  0.00     0.131 A 
ATOM      3  C   UNL     1       3.778   0.367  -0.808  1.00  0.00     0.048 A 
ATOM      4  C   UNL     1       3.828   1.168   0.341  1.00  0.00    -0.010 A 
ATOM      5  C   UNL     1       3.712   0.549   1.593  1.00  0.00     0.048 A 
ATOM      6  C   UNL     1       3.502  -0.826   1.679  1.00  0.00     0.131 A 
ATOM      7  F   UNL     1       3.373  -1.377   2.895  1.00  0.00    -0.207 F 
ATOM      8  C   UNL     1       3.408  -1.623   0.538  1.00  0.00     0.038 A 
ENDROOT
BRANCH   8   9
ATOM      9  C   UNL     1       3.062  -3.083   0.635  1.00  0.00     0.126 C 
BRANCH   9  10
ATOM     10  N   UNL     1       1.628  -3.312   0.881  1.00  0.00    -0.294 NA
ATOM     11  C   UNL     1       1.340  -4.723   1.205  1.00  0.00     0.113 C 
ATOM     12  C   UNL     1       0.781  -2.843  -0.241  1.00  0.00     0.118 C 
ATOM     13  C   UNL     1       0.692  -5.496   0.048  1.00  0.00     0.176 C 
ATOM     14  C   UNL     1      -0.618  -3.491  -0.206  1.00  0.00     0.146 C 
ATOM     15  O   UNL     1      -0.547  -4.923  -0.388  1.00  0.00    -0.374 OA
BRANCH  14  16
ATOM     16  C   UNL     1      -1.558  -2.938  -1.302  1.00  0.00     0.114 C 
BRANCH  16  17
ATOM     17  N   UNL     1      -1.877  -1.504  -1.304  1.00  0.00    -0.312 NA
ATOM     18  H   UNL     1      -1.060  -0.950  -1.565  1.00  0.00     0.122 HD
BRANCH  17  19
ATOM     19  C   UNL     1      -2.432  -1.026  -0.031  1.00  0.00     0.111 CG0
ATOM     20  G   UNL     1      -3.241   0.316  -0.134  1.00  0.00     0.000 G0
ENDBRANCH  17  19
ENDBRANCH  16  17
ENDBRANCH  14  16
ENDBRANCH   9  10
ENDBRANCH   8   9
BRANCH   4  21
ATOM     21  C   UNL     1       3.929   2.629   0.225  1.00  0.00     0.010 A 
ATOM     22  C   UNL     1       5.170   3.257   0.417  1.00  0.00     0.011 A 
ATOM     23  C   UNL     1       2.789   3.393  -0.092  1.00  0.00     0.097 A 
ATOM     24  C   UNL     1       5.287   4.635   0.285  1.00  0.00     0.003 A 
ATOM     25  N   UNL     1       1.581   2.800  -0.260  1.00  0.00    -0.244 NA
ATOM     26  C   UNL     1       2.922   4.797  -0.235  1.00  0.00     0.089 A 
ATOM     27  C   UNL     1       4.163   5.389  -0.044  1.00  0.00     0.030 A 
ATOM     28  C   UNL     1       0.528   3.586  -0.578  1.00  0.00     0.092 A 
ATOM     29  N   UNL     1       1.873   5.578  -0.555  1.00  0.00    -0.252 NA
ATOM     30  C   UNL     1       0.682   4.953  -0.724  1.00  0.00     0.140 A 
BRANCH  28  31
ATOM     31  C   UNL     1      -0.751   2.927  -0.747  1.00  0.00     0.040 A 
ATOM     32  C   UNL     1      -1.087   1.702  -0.205  1.00  0.00     0.119 A 
ATOM     33  C   UNL     1      -1.919   3.330  -1.423  1.00  0.00     0.145 A 
ATOM     34  N   UNL     1      -2.382   1.440  -0.575  1.00  0.00    -0.265 N 
ATOM     35  N   UNL     1      -2.910   2.446  -1.311  1.00  0.00    -0.180 NA
BRANCH  34  36
ATOM     36  C   UNL     1      -3.241   0.316  -0.134  1.00  0.00     0.078 CG0
ATOM     37  C   UNL     1      -4.428   0.079  -1.119  1.00  0.00     0.047 C 
ATOM     38  C   UNL     1      -3.787   0.680   1.276  1.00  0.00     0.047 C 
ATOM     39  C   UNL     1      -5.668   0.868  -0.711  1.00  0.00     0.083 C 
ATOM     40  C   UNL     1      -5.142   0.033   1.540  1.00  0.00     0.083 C 
ATOM     41  N   UNL     1      -6.172   0.482   0.609  1.00  0.00    -0.317 NA
ATOM     42  H   UNL     1      -6.889  -0.237   0.515  1.00  0.00     0.122 HD
ATOM     43  G   UNL     1      -2.432  -1.026  -0.031  1.00  0.00     0.000 G0
ENDBRANCH  34  36
ENDBRANCH  28  31
ENDBRANCH   4  21
TORSDOF 0
