REMARK SMILES CC(C)(C)[C@H]1NC(=O)c2c[nH]c3ncc(nc23)[C@]2(CCOCNC[C@@]3(C#N)CN(C3)C1=O)CC2
REMARK SMILES IDX 18 1 34 2 33 3 15 4 9 5 10 6 17 7 11 8 16 9 12 10 13 11
REMARK SMILES IDX 14 12 7 14 6 15 8 16 5 18 2 19 1 20 3 21 4 22 31 23 32 24
REMARK SMILES IDX 29 25 30 26 28 27 25 28 26 29 27 30 19 32 20 33 21 34 22 35
REMARK SMILES IDX 23 36 24 38
REMARK H PARENT 11 13 6 17 23 37
REMARK Flexibility Score:  181.900
ROOT
ATOM      1  C   UNL     1       4.748  -0.525   0.207  1.00  0.00     0.016 C 
ATOM      2  C   UNL     1       6.138  -0.984   0.629  1.00  0.00     0.014 C 
ATOM      3  C   UNL     1       5.151  -0.574   1.675  1.00  0.00     0.014 C 
ENDROOT
BRANCH   1   4
ATOM      4  C   UNL     1       3.726  -1.554  -0.279  1.00  0.00     0.066 A 
ATOM      5  C   UNL     1       0.138  -2.391  -0.277  1.00  0.00     0.085 A 
ATOM      6  C   UNL     1      -0.228  -3.541  -0.972  1.00  0.00     0.100 A 
ATOM      7  C   UNL     1       1.557  -2.290  -0.396  1.00  0.00     0.120 A 
ATOM      8  N   UNL     1       0.904  -4.104  -1.512  1.00  0.00    -0.344 N 
ATOM      9  N   UNL     1       2.432  -1.368   0.083  1.00  0.00    -0.246 NA
ATOM     10  C   UNL     1       1.990  -3.347  -1.188  1.00  0.00     0.156 A 
ATOM     11  N   UNL     1       3.254  -3.586  -1.584  1.00  0.00    -0.235 NA
ATOM     12  C   UNL     1       4.092  -2.631  -1.098  1.00  0.00     0.138 A 
ATOM     13  H   UNL     1       0.950  -4.940  -2.078  1.00  0.00     0.168 HD
BRANCH   5  14
ATOM     14  C   UNL     1      -0.741  -1.459   0.418  1.00  0.00     0.255 C 
ATOM     15  N   UNL     1      -2.075  -1.549   0.074  1.00  0.00    -0.340 N 
ATOM     16  O   UNL     1      -0.334  -0.614   1.210  1.00  0.00    -0.269 OA
ATOM     17  H   UNL     1      -2.327  -2.129  -0.715  1.00  0.00     0.164 HD
BRANCH  15  18
ATOM     18  C   UNL     1      -3.031  -0.517   0.477  1.00  0.00     0.177 C 
BRANCH  18  19
ATOM     19  C   UNL     1      -4.461  -1.073   0.746  1.00  0.00    -0.009 C 
ATOM     20  C   UNL     1      -4.400  -2.056   1.935  1.00  0.00     0.013 C 
ATOM     21  C   UNL     1      -5.396   0.089   1.138  1.00  0.00     0.013 C 
ATOM     22  C   UNL     1      -5.078  -1.813  -0.455  1.00  0.00     0.013 C 
ENDBRANCH  18  19
BRANCH  18  23
ATOM     23  C   UNL     1      -2.960   0.526  -0.661  1.00  0.00     0.245 C 
ATOM     24  O   UNL     1      -3.218   0.225  -1.830  1.00  0.00    -0.272 OA
BRANCH  23  25
ATOM     25  N   UNL     1      -2.498   1.767  -0.334  1.00  0.00    -0.337 N 
ATOM     26  C   UNL     1      -2.085   2.854  -1.209  1.00  0.00     0.145 C 
ATOM     27  C   UNL     1      -1.980   2.391   0.866  1.00  0.00     0.145 C 
ATOM     28  C   UNL     1      -1.107   3.263  -0.079  1.00  0.00     0.105 CG0
ATOM     29  C   UNL     1      -1.131   4.669   0.263  1.00  0.00     0.074 C 
ATOM     30  N   UNL     1      -1.162   5.793   0.554  1.00  0.00    -0.198 NA
ATOM     31  G   UNL     1       0.324   2.709  -0.215  1.00  0.00     0.000 G0
ENDBRANCH  23  25
ENDBRANCH  18  23
ENDBRANCH  15  18
ENDBRANCH   5  14
ENDBRANCH   1   4
BRANCH   1  32
ATOM     32  C   UNL     1       4.614   0.844  -0.445  1.00  0.00     0.042 C 
BRANCH  32  33
ATOM     33  C   UNL     1       3.546   1.713   0.228  1.00  0.00     0.163 C 
BRANCH  33  34
ATOM     34  O   UNL     1       3.243   2.868  -0.557  1.00  0.00    -0.366 OA
BRANCH  34  35
ATOM     35  C   UNL     1       2.307   2.612  -1.593  1.00  0.00     0.244 C 
BRANCH  35  36
ATOM     36  N   UNL     1       1.062   3.323  -1.331  1.00  0.00    -0.293 NA
ATOM     37  H   UNL     1       1.339   4.271  -1.069  1.00  0.00     0.125 HD
BRANCH  36  38
ATOM     38  C   UNL     1       0.324   2.709  -0.215  1.00  0.00     0.109 CG0
ATOM     39  G   UNL     1      -1.107   3.263  -0.079  1.00  0.00     0.000 G0
ENDBRANCH  36  38
ENDBRANCH  35  36
ENDBRANCH  34  35
ENDBRANCH  33  34
ENDBRANCH  32  33
ENDBRANCH   1  32
TORSDOF 1
