REMARK SMILES CN1CCN2c3ccc(cc3)-c3cnc4cccc(c4n3)-c3cc(F)c(c(F)c3)CN3CCOC[C@@H]3CCC[C@H]2C1
REMARK SMILES IDX 12 1 13 2 14 3 15 4 16 5 17 6 18 7 19 8 20 9 21 10 9 11 6 12
REMARK SMILES IDX 7 13 11 14 8 15 10 16 5 17 2 18 3 19 41 20 4 21 40 22 1 23
REMARK SMILES IDX 39 24 38 25 22 27 23 28 29 29 24 30 27 31 26 32 25 33 28 34
REMARK SMILES IDX 30 35 31 36 32 37 36 38 33 39 35 40 34 41 37 42
REMARK H PARENT
REMARK Flexibility Score:   65.900
ROOT
ATOM      1  C   UNL     1       2.870  -3.054   0.140  1.00  0.00     0.089 A 
ATOM      2  C   UNL     1       3.737  -4.122   0.006  1.00  0.00     0.140 A 
ATOM      3  N   UNL     1       5.082  -3.964  -0.117  1.00  0.00    -0.252 NA
ATOM      4  C   UNL     1       5.546  -2.695  -0.125  1.00  0.00     0.089 A 
ATOM      5  C   UNL     1       6.906  -2.453  -0.274  1.00  0.00     0.030 A 
ATOM      6  C   UNL     1       7.416  -1.154  -0.307  1.00  0.00     0.003 A 
ATOM      7  C   UNL     1       6.553  -0.069  -0.191  1.00  0.00     0.011 A 
ATOM      8  C   UNL     1       5.176  -0.279  -0.033  1.00  0.00     0.010 A 
ATOM      9  C   UNL     1       4.673  -1.591   0.006  1.00  0.00     0.097 A 
ATOM     10  N   UNL     1       3.352  -1.790   0.152  1.00  0.00    -0.244 NA
ENDROOT
BRANCH   1  11
ATOM     11  C   UNL     1       1.408  -3.128   0.210  1.00  0.00     0.002 A 
ATOM     12  C   UNL     1      -1.400  -2.813   0.036  1.00  0.00     0.037 A 
ATOM     13  C   UNL     1      -0.739  -3.772  -0.739  1.00  0.00     0.026 A 
ATOM     14  C   UNL     1      -0.666  -2.108   0.992  1.00  0.00     0.026 A 
ATOM     15  C   UNL     1       0.652  -3.929  -0.657  1.00  0.00     0.012 A 
ATOM     16  C   UNL     1       0.717  -2.256   1.070  1.00  0.00     0.012 A 
BRANCH  12  17
ATOM     17  N   UNL     1      -2.739  -2.512  -0.236  1.00  0.00    -0.366 N 
ATOM     18  N   UNL     1      -5.534  -1.578   0.061  1.00  0.00    -0.303 NA
ATOM     19  C   UNL     1      -5.147  -2.998   0.199  1.00  0.00     0.105 C 
ATOM     20  C   UNL     1      -4.574  -0.917  -0.852  1.00  0.00     0.109 C 
ATOM     21  C   UNL     1      -3.683  -3.250   0.620  1.00  0.00     0.132 C 
ATOM     22  C   UNL     1      -3.062  -1.075  -0.491  1.00  0.00     0.096 C 
ATOM     23  C   UNL     1      -5.601  -0.903   1.355  1.00  0.00     0.105 C 
BRANCH  22  24
ATOM     24  C   UNL     1      -2.191  -0.503  -1.644  1.00  0.00     0.026 C 
BRANCH  24  25
ATOM     25  C   UNL     1      -2.063   1.027  -1.660  1.00  0.00     0.004 CG0
ATOM     26  G   UNL     1      -1.261   1.580  -0.470  1.00  0.00     0.000 G0
ENDBRANCH  24  25
ENDBRANCH  22  24
ENDBRANCH  12  17
ENDBRANCH   1  11
BRANCH   8  27
ATOM     27  C   UNL     1       4.249   0.863   0.076  1.00  0.00    -0.010 A 
ATOM     28  C   UNL     1       3.704   1.227   1.315  1.00  0.00     0.048 A 
ATOM     29  C   UNL     1       3.815   1.554  -1.065  1.00  0.00     0.048 A 
ATOM     30  C   UNL     1       2.740   2.232   1.398  1.00  0.00     0.131 A 
ATOM     31  C   UNL     1       2.848   2.557  -0.961  1.00  0.00     0.131 A 
ATOM     32  C   UNL     1       2.288   2.910   0.265  1.00  0.00     0.038 A 
ATOM     33  F   UNL     1       2.255   2.551   2.608  1.00  0.00    -0.207 F 
ATOM     34  F   UNL     1       2.458   3.187  -2.079  1.00  0.00    -0.207 F 
BRANCH  32  35
ATOM     35  C   UNL     1       1.247   3.989   0.378  1.00  0.00     0.126 C 
BRANCH  35  36
ATOM     36  N   UNL     1      -0.114   3.467   0.600  1.00  0.00    -0.291 NA
ATOM     37  C   UNL     1      -0.917   4.460   1.346  1.00  0.00     0.113 C 
ATOM     38  C   UNL     1      -0.798   3.048  -0.657  1.00  0.00     0.083 C 
ATOM     39  C   UNL     1      -2.420   4.146   1.308  1.00  0.00     0.175 C 
ATOM     40  C   UNL     1      -1.960   4.002  -1.031  1.00  0.00     0.179 C 
ATOM     41  O   UNL     1      -2.966   4.088  -0.017  1.00  0.00    -0.378 OA
BRANCH  38  42
ATOM     42  C   UNL     1      -1.261   1.580  -0.470  1.00  0.00     0.021 CG0
ATOM     43  G   UNL     1      -2.063   1.027  -1.660  1.00  0.00     0.000 G0
ENDBRANCH  38  42
ENDBRANCH  35  36
ENDBRANCH  32  35
ENDBRANCH   8  27
TORSDOF 0
