REMARK SMILES N#C[C@H]1CCN(C(=O)[C@@H]2NC(=O)c3c[nH]c4ncc(nc34)[C@@H]3C[C@H]3CCCC23CC3)C1
REMARK SMILES IDX 10 1 11 2 12 3 9 5 7 6 8 7 6 8 1 9 2 10 3 11 4 12 31 13 5 14
REMARK SMILES IDX 28 15 29 16 30 17 27 18 26 19 13 21 14 22 21 23 15 24 20 25
REMARK SMILES IDX 16 26 19 27 17 28 18 29 22 31 23 32 24 33 25 34
REMARK H PARENT 10 4 15 30
REMARK Flexibility Score:   57.900
ROOT
ATOM      1  N   UNL     1      -0.149  -0.051   0.901  1.00  0.00    -0.340 N 
ATOM      2  C   UNL     1      -0.055  -0.847   2.017  1.00  0.00     0.255 C 
ATOM      3  O   UNL     1       0.888  -0.804   2.800  1.00  0.00    -0.269 OA
ATOM      4  H   UNL     1      -0.954  -0.186   0.295  1.00  0.00     0.164 HD
ENDROOT
BRANCH   1   5
ATOM      5  C   UNL     1       0.882   0.869   0.472  1.00  0.00     0.178 C 
BRANCH   5   6
ATOM      6  C   UNL     1       2.029   0.067  -0.210  1.00  0.00     0.245 C 
ATOM      7  O   UNL     1       1.822  -0.665  -1.183  1.00  0.00    -0.272 OA
BRANCH   6   8
ATOM      8  N   UNL     1       3.299   0.170   0.325  1.00  0.00    -0.340 N 
ATOM      9  N   UNL     1       7.895  -0.812  -0.094  1.00  0.00    -0.198 NA
ATOM     10  C   UNL     1       6.821  -0.705   0.332  1.00  0.00     0.067 C 
ATOM     11  C   UNL     1       5.471  -0.562   0.874  1.00  0.00     0.114 C 
ATOM     12  C   UNL     1       5.230   0.807   1.510  1.00  0.00     0.042 C 
ATOM     13  C   UNL     1       4.404  -0.610  -0.213  1.00  0.00     0.138 C 
ATOM     14  C   UNL     1       3.713   0.929   1.494  1.00  0.00     0.121 C 
ENDBRANCH   6   8
ENDBRANCH   5   6
BRANCH   5  15
ATOM     15  C   UNL     1       0.263   1.927  -0.469  1.00  0.00    -0.000 C 
ATOM     16  C   UNL     1      -0.223   3.219   0.183  1.00  0.00     0.010 C 
ATOM     17  C   UNL     1       1.030   3.232  -0.631  1.00  0.00     0.010 C 
BRANCH  15  18
ATOM     18  C   UNL     1      -0.435   1.395  -1.736  1.00  0.00     0.010 C 
BRANCH  18  19
ATOM     19  C   UNL     1      -1.913   1.797  -1.867  1.00  0.00     0.001 CG0
ATOM     20  G   UNL     1      -2.672   1.028  -2.965  1.00  0.00     0.000 G0
ENDBRANCH  18  19
ENDBRANCH  15  18
ENDBRANCH   5  15
ENDBRANCH   1   5
BRANCH   2  21
ATOM     21  C   UNL     1      -1.180  -1.764   2.173  1.00  0.00     0.085 A 
ATOM     22  C   UNL     1      -1.355  -2.734   3.150  1.00  0.00     0.100 A 
ATOM     23  C   UNL     1      -2.319  -1.854   1.336  1.00  0.00     0.120 A 
ATOM     24  N   UNL     1      -2.542  -3.394   2.906  1.00  0.00    -0.344 N 
ATOM     25  N   UNL     1      -2.627  -1.119   0.243  1.00  0.00    -0.247 NA
ATOM     26  C   UNL     1      -3.140  -2.870   1.792  1.00  0.00     0.156 A 
ATOM     27  C   UNL     1      -3.776  -1.465  -0.378  1.00  0.00     0.063 A 
ATOM     28  N   UNL     1      -4.304  -3.256   1.229  1.00  0.00    -0.235 NA
ATOM     29  C   UNL     1      -4.574  -2.502   0.120  1.00  0.00     0.137 A 
ATOM     30  H   UNL     1      -2.925  -4.156   3.447  1.00  0.00     0.168 HD
BRANCH  27  31
ATOM     31  C   UNL     1      -4.130  -0.636  -1.586  1.00  0.00     0.043 C 
ATOM     32  C   UNL     1      -4.190  -1.150  -3.001  1.00  0.00     0.014 C 
ATOM     33  C   UNL     1      -2.976  -0.383  -2.555  1.00  0.00    -0.001 C 
BRANCH  33  34
ATOM     34  C   UNL     1      -2.672   1.028  -2.965  1.00  0.00     0.004 CG0
ATOM     35  G   UNL     1      -1.913   1.797  -1.867  1.00  0.00     0.000 G0
ENDBRANCH  33  34
ENDBRANCH  27  31
ENDBRANCH   2  21
TORSDOF 2
