REMARK SMILES N#C[C@H]1C[C@H]2CNCC3(CC3)c3cnc4[nH]cc(c4n3)C(=O)N[C@H](C3CC3)C(=O)N2C1
REMARK SMILES IDX 12 1 13 2 14 3 15 4 16 5 17 6 18 7 19 8 20 9 21 11 23 12
REMARK SMILES IDX 22 13 24 15 28 16 29 17 30 18 1 19 2 20 3 21 4 22 31 23 5 24
REMARK SMILES IDX 25 26 26 27 27 28 9 29 10 30 11 31 8 32 7 33 6 35
REMARK H PARENT 16 10 23 14 7 34
REMARK Flexibility Score:  122.900
ROOT
ATOM      1  C   UNL     1       2.001  -1.247  -2.170  1.00  0.00     0.067 A 
ATOM      2  C   UNL     1       2.916  -2.247  -2.552  1.00  0.00     0.138 A 
ATOM      3  N   UNL     1       2.932  -3.549  -2.133  1.00  0.00    -0.235 NA
ATOM      4  C   UNL     1       1.942  -3.764  -1.247  1.00  0.00     0.156 A 
ATOM      5  N   UNL     1       1.687  -4.923  -0.568  1.00  0.00    -0.344 N 
ATOM      6  C   UNL     1       0.636  -4.727   0.300  1.00  0.00     0.100 A 
ATOM      7  C   UNL     1       0.182  -3.423   0.154  1.00  0.00     0.085 A 
ATOM      8  C   UNL     1       1.005  -2.830  -0.840  1.00  0.00     0.120 A 
ATOM      9  N   UNL     1       0.989  -1.566  -1.331  1.00  0.00    -0.246 NA
ATOM     10  H   UNL     1       2.228  -5.769  -0.672  1.00  0.00     0.168 HD
ENDROOT
BRANCH   7  11
ATOM     11  C   UNL     1      -0.877  -2.773   0.915  1.00  0.00     0.255 C 
ATOM     12  N   UNL     1      -1.236  -1.556   0.405  1.00  0.00    -0.340 N 
ATOM     13  O   UNL     1      -1.359  -3.263   1.931  1.00  0.00    -0.269 OA
ATOM     14  H   UNL     1      -0.759  -1.243  -0.441  1.00  0.00     0.164 HD
BRANCH  12  15
ATOM     15  C   UNL     1      -2.072  -0.577   1.069  1.00  0.00     0.175 C 
BRANCH  15  16
ATOM     16  C   UNL     1      -1.681   0.759   0.383  1.00  0.00     0.245 C 
ATOM     17  O   UNL     1      -1.961   0.961  -0.804  1.00  0.00    -0.272 OA
BRANCH  16  18
ATOM     18  N   UNL     1      -0.918   1.659   1.099  1.00  0.00    -0.335 N 
ATOM     19  N   UNL     1       1.806   3.456   4.074  1.00  0.00    -0.198 NA
ATOM     20  C   UNL     1       0.787   3.345   3.531  1.00  0.00     0.067 C 
ATOM     21  C   UNL     1      -0.503   3.225   2.839  1.00  0.00     0.114 C 
ATOM     22  C   UNL     1      -0.494   3.914   1.462  1.00  0.00     0.047 C 
ATOM     23  C   UNL     1      -0.855   1.762   2.547  1.00  0.00     0.138 C 
ATOM     24  C   UNL     1      -0.252   2.785   0.453  1.00  0.00     0.100 CG0
ATOM     25  G   UNL     1       1.274   2.569   0.206  1.00  0.00     0.000 G0
ENDBRANCH  16  18
ENDBRANCH  15  16
BRANCH  15  26
ATOM     26  C   UNL     1      -3.524  -0.904   0.846  1.00  0.00     0.021 C 
ATOM     27  C   UNL     1      -4.271  -1.818   1.787  1.00  0.00     0.006 C 
ATOM     28  C   UNL     1      -4.584  -0.348   1.766  1.00  0.00     0.006 C 
ENDBRANCH  15  26
ENDBRANCH  12  15
ENDBRANCH   7  11
BRANCH   1  29
ATOM     29  C   UNL     1       2.096   0.224  -2.648  1.00  0.00     0.027 C 
ATOM     30  C   UNL     1       3.388   0.766  -3.249  1.00  0.00     0.016 C 
ATOM     31  C   UNL     1       2.227   0.460  -4.149  1.00  0.00     0.016 C 
BRANCH  29  32
ATOM     32  C   UNL     1       1.247   1.243  -1.867  1.00  0.00     0.094 C 
BRANCH  32  33
ATOM     33  N   UNL     1       1.722   1.357  -0.488  1.00  0.00    -0.314 NA
ATOM     34  H   UNL     1       2.740   1.340  -0.487  1.00  0.00     0.122 HD
BRANCH  33  35
ATOM     35  C   UNL     1       1.274   2.569   0.206  1.00  0.00     0.106 CG0
ATOM     36  G   UNL     1      -0.252   2.785   0.453  1.00  0.00     0.000 G0
ENDBRANCH  33  35
ENDBRANCH  32  33
ENDBRANCH  29  32
ENDBRANCH   1  29
TORSDOF 1
