REMARK SMILES NC(=O)c1cnc2c3c1[nH]c1cc(ccc13)-c1ccc(nn1)N1CCS(=O)(=O)[C@@H](CCCC3(CC3)[C@H](C(F)(F)F)N2)C1
REMARK SMILES IDX 4 1 5 2 6 3 7 4 8 5 9 6 10 7 11 8 12 9 13 10 14 11 15 12
REMARK SMILES IDX 16 13 2 15 1 16 3 17 41 20 36 22 33 23 34 24 35 25 32 26
REMARK SMILES IDX 37 28 38 29 39 30 40 31 17 32 18 33 22 34 19 35 21 36 20 37
REMARK SMILES IDX 23 38 24 39 42 40 25 41 29 42 26 43 27 44 28 45 30 46 31 47
REMARK H PARENT 10 14 1 18 1 19 41 21
REMARK Flexibility Score:   48.900
ROOT
ATOM      1  C   UNL     1       5.021  -0.017   0.919  1.00  0.00     0.082 A 
ATOM      2  C   UNL     1       5.157  -1.254   0.301  1.00  0.00     0.129 A 
ATOM      3  N   UNL     1       4.383  -1.717  -0.718  1.00  0.00    -0.238 NA
ATOM      4  C   UNL     1       3.393  -0.937  -1.210  1.00  0.00     0.136 A 
ATOM      5  C   UNL     1       3.284   0.392  -0.748  1.00  0.00     0.051 A 
ATOM      6  C   UNL     1       4.029   0.792   0.359  1.00  0.00     0.065 A 
ATOM      7  N   UNL     1       3.538   2.023   0.750  1.00  0.00    -0.354 N 
ATOM      8  C   UNL     1       2.471   2.386  -0.040  1.00  0.00     0.047 A 
ATOM      9  C   UNL     1       1.472   3.359   0.132  1.00  0.00     0.037 A 
ATOM     10  C   UNL     1       0.419   3.374  -0.810  1.00  0.00     0.004 A 
ATOM     11  C   UNL     1       0.616   2.709  -2.038  1.00  0.00     0.011 A 
ATOM     12  C   UNL     1       1.621   1.759  -2.198  1.00  0.00     0.012 A 
ATOM     13  C   UNL     1       2.463   1.500  -1.112  1.00  0.00     0.011 A 
ATOM     14  H   UNL     1       3.849   2.501   1.589  1.00  0.00     0.167 HD
ENDROOT
BRANCH   1  15
ATOM     15  C   UNL     1       5.800   0.444   2.087  1.00  0.00     0.252 C 
ATOM     16  N   UNL     1       6.872  -0.294   2.499  1.00  0.00    -0.365 N 
ATOM     17  O   UNL     1       5.494   1.479   2.672  1.00  0.00    -0.269 OA
ATOM     18  H   UNL     1       7.218  -1.131   2.056  1.00  0.00     0.159 HD
ATOM     19  H   UNL     1       7.384   0.053   3.301  1.00  0.00     0.159 HD
ENDBRANCH   1  15
BRANCH   4  20
ATOM     20  N   UNL     1       2.488  -1.514  -2.095  1.00  0.00    -0.358 N 
ATOM     21  H   UNL     1       3.035  -2.025  -2.788  1.00  0.00     0.162 HD
BRANCH  20  22
ATOM     22  C   UNL     1       1.445  -2.434  -1.516  1.00  0.00     0.192 C 
BRANCH  22  23
ATOM     23  C   UNL     1       0.443  -1.731  -0.542  1.00  0.00    -0.001 C 
ATOM     24  C   UNL     1      -0.030  -2.416   0.742  1.00  0.00     0.010 C 
ATOM     25  C   UNL     1       0.956  -1.302   0.831  1.00  0.00     0.010 C 
BRANCH  23  26
ATOM     26  C   UNL     1      -0.560  -0.798  -1.230  1.00  0.00     0.009 CG0
ATOM     27  G   UNL     1      -1.824  -1.461  -1.801  1.00  0.00     0.000 G0
ENDBRANCH  23  26
ENDBRANCH  22  23
BRANCH  22  28
ATOM     28  C   UNL     1       2.013  -3.803  -1.036  1.00  0.00     0.409 C 
ATOM     29  F   UNL     1       1.017  -4.722  -0.935  1.00  0.00    -0.169 F 
ATOM     30  F   UNL     1       2.641  -3.760   0.157  1.00  0.00    -0.169 F 
ATOM     31  F   UNL     1       2.890  -4.298  -1.949  1.00  0.00    -0.169 F 
ENDBRANCH  22  28
ENDBRANCH  20  22
ENDBRANCH   4  20
BRANCH  10  32
ATOM     32  C   UNL     1      -0.981   3.730  -0.437  1.00  0.00     0.093 A 
ATOM     33  C   UNL     1      -1.409   3.758   0.881  1.00  0.00     0.035 A 
ATOM     34  N   UNL     1      -1.891   3.494  -1.404  1.00  0.00    -0.148 NA
ATOM     35  C   UNL     1      -2.649   3.187   1.190  1.00  0.00     0.051 A 
ATOM     36  N   UNL     1      -3.082   2.905  -1.093  1.00  0.00    -0.132 NA
ATOM     37  C   UNL     1      -3.392   2.595   0.179  1.00  0.00     0.151 A 
BRANCH  37  38
ATOM     38  N   UNL     1      -4.295   1.555   0.412  1.00  0.00    -0.353 N 
ATOM     39  C   UNL     1      -4.783   1.269   1.764  1.00  0.00     0.134 C 
ATOM     40  C   UNL     1      -4.185   0.437  -0.558  1.00  0.00     0.138 C 
ATOM     41  C   UNL     1      -5.612   0.003   1.805  1.00  0.00     0.158 C 
ATOM     42  C   UNL     1      -3.451  -0.723   0.115  1.00  0.00     0.128 C 
ATOM     43  S   UNL     1      -4.588  -1.386   1.351  1.00  0.00     0.156 S 
ATOM     44  O   UNL     1      -3.804  -1.750   2.518  1.00  0.00    -0.228 OA
ATOM     45  O   UNL     1      -5.453  -2.362   0.715  1.00  0.00    -0.228 OA
BRANCH  42  46
ATOM     46  C   UNL     1      -2.960  -1.831  -0.830  1.00  0.00     0.021 C 
BRANCH  46  47
ATOM     47  C   UNL     1      -1.824  -1.461  -1.801  1.00  0.00     0.002 CG0
ATOM     48  G   UNL     1      -0.560  -0.798  -1.230  1.00  0.00     0.000 G0
ENDBRANCH  46  47
ENDBRANCH  42  46
ENDBRANCH  37  38
ENDBRANCH  10  32
TORSDOF 2
