REMARK SMILES O=C1Nc2c[nH]nc2-c2nc3ccc(cc3[nH]2)CN2CCOC[C@@H]2CCCCCCC2(CC2)N1
REMARK SMILES IDX 9 1 10 2 11 3 12 4 13 5 14 6 15 7 16 8 17 9 8 11 4 12 5 13
REMARK SMILES IDX 6 14 7 15 3 17 1 18 2 19 34 20 31 23 32 24 33 25 30 26 29 27
REMARK SMILES IDX 18 29 19 30 20 31 24 32 21 33 23 34 22 35 25 36 26 37 27 38
REMARK SMILES IDX 28 39
REMARK H PARENT 17 10 6 16 3 21 34 22
REMARK Flexibility Score:   58.900
ROOT
ATOM      1  C   UNL     1      -1.713   3.498   0.042  1.00  0.00     0.161 A 
ATOM      2  N   UNL     1      -0.832   4.460  -0.200  1.00  0.00    -0.227 NA
ATOM      3  C   UNL     1       0.246   3.845  -0.789  1.00  0.00     0.089 A 
ATOM      4  C   UNL     1       1.488   4.361  -1.185  1.00  0.00     0.031 A 
ATOM      5  C   UNL     1       2.449   3.479  -1.712  1.00  0.00     0.007 A 
ATOM      6  C   UNL     1       2.182   2.107  -1.868  1.00  0.00    -0.032 A 
ATOM      7  C   UNL     1       0.906   1.609  -1.544  1.00  0.00     0.033 A 
ATOM      8  C   UNL     1      -0.003   2.497  -0.976  1.00  0.00     0.066 A 
ATOM      9  N   UNL     1      -1.250   2.312  -0.451  1.00  0.00    -0.337 N 
ATOM     10  H   UNL     1      -1.692   1.415  -0.307  1.00  0.00     0.168 HD
ENDROOT
BRANCH   1  11
ATOM     11  C   UNL     1      -3.104   3.719   0.770  1.00  0.00     0.151 A 
ATOM     12  C   UNL     1      -4.165   2.818   1.138  1.00  0.00     0.092 A 
ATOM     13  C   UNL     1      -5.161   3.655   1.605  1.00  0.00     0.132 A 
ATOM     14  N   UNL     1      -4.664   4.918   1.571  1.00  0.00    -0.283 N 
ATOM     15  N   UNL     1      -3.431   4.988   1.083  1.00  0.00    -0.170 NA
ATOM     16  H   UNL     1      -5.109   5.782   1.863  1.00  0.00     0.189 HD
BRANCH  12  17
ATOM     17  N   UNL     1      -4.414   1.450   1.134  1.00  0.00    -0.304 N 
ATOM     18  O   UNL     1      -2.305   0.533   0.934  1.00  0.00    -0.248 OA
ATOM     19  C   UNL     1      -3.520   0.419   1.010  1.00  0.00     0.319 C 
ATOM     20  N   UNL     1      -4.143  -0.813   0.979  1.00  0.00    -0.332 N 
ATOM     21  H   UNL     1      -5.353   1.188   1.391  1.00  0.00     0.172 HD
ATOM     22  H   UNL     1      -5.150  -0.868   1.020  1.00  0.00     0.165 HD
BRANCH  20  23
ATOM     23  C   UNL     1      -3.407  -2.055   0.859  1.00  0.00     0.042 C 
ATOM     24  C   UNL     1      -2.890  -2.447  -0.517  1.00  0.00     0.031 C 
ATOM     25  C   UNL     1      -4.069  -3.163   0.052  1.00  0.00     0.031 C 
BRANCH  23  26
ATOM     26  C   UNL     1      -2.721  -2.500   2.152  1.00  0.00     0.028 C 
BRANCH  26  27
ATOM     27  C   UNL     1      -1.345  -3.158   2.029  1.00  0.00     0.002 CG0
ATOM     28  G   UNL     1      -0.229  -2.175   1.655  1.00  0.00     0.000 G0
ENDBRANCH  26  27
ENDBRANCH  23  26
ENDBRANCH  20  23
ENDBRANCH  12  17
ENDBRANCH   1  11
BRANCH   6  29
ATOM     29  C   UNL     1       3.266   1.183  -2.409  1.00  0.00     0.120 C 
BRANCH  29  30
ATOM     30  N   UNL     1       3.085  -0.234  -2.042  1.00  0.00    -0.292 NA
ATOM     31  C   UNL     1       3.935  -1.128  -2.852  1.00  0.00     0.113 C 
ATOM     32  C   UNL     1       3.284  -0.488  -0.586  1.00  0.00     0.083 C 
ATOM     33  C   UNL     1       5.391  -1.216  -2.378  1.00  0.00     0.175 C 
ATOM     34  C   UNL     1       4.772  -0.640  -0.190  1.00  0.00     0.179 C 
ATOM     35  O   UNL     1       5.458  -1.600  -1.001  1.00  0.00    -0.378 OA
BRANCH  32  36
ATOM     36  C   UNL     1       2.420  -1.715  -0.200  1.00  0.00     0.021 C 
BRANCH  36  37
ATOM     37  C   UNL     1       2.291  -1.910   1.317  1.00  0.00     0.002 C 
BRANCH  37  38
ATOM     38  C   UNL     1       1.145  -2.857   1.695  1.00  0.00     0.000 C 
BRANCH  38  39
ATOM     39  C   UNL     1      -0.229  -2.175   1.655  1.00  0.00     0.000 CG0
ATOM     40  G   UNL     1      -1.345  -3.158   2.029  1.00  0.00     0.000 G0
ENDBRANCH  38  39
ENDBRANCH  37  38
ENDBRANCH  36  37
ENDBRANCH  32  36
ENDBRANCH  29  30
ENDBRANCH   6  29
TORSDOF 0
