REMARK SMILES O=C1Nc2c[nH]nc2-c2nc3ccc(cc3[nH]2)CN2CCOC[C@@H]2CCOCCC2(CC2)N1
REMARK SMILES IDX 18 1 14 2 9 3 10 4 17 5 11 6 16 7 12 8 15 9 13 10 8 12 4 13
REMARK SMILES IDX 5 14 6 15 7 16 3 18 1 19 2 20 33 21 30 24 31 25 32 26 29 27
REMARK SMILES IDX 19 29 20 30 24 31 21 32 23 33 22 34 25 35 26 36 27 37 28 38
REMARK H PARENT 17 11 6 17 3 22 33 23
REMARK Flexibility Score:  107.900
ROOT
ATOM      1  C   UNL     1       3.311  -0.508  -1.354  1.00  0.00     0.120 C 
ENDROOT
BRANCH   1   2
ATOM      2  C   UNL     1       2.236  -1.577  -1.293  1.00  0.00    -0.032 A 
ATOM      3  C   UNL     1      -1.921  -3.307  -0.719  1.00  0.00     0.161 A 
ATOM      4  N   UNL     1      -0.944  -4.202  -0.680  1.00  0.00    -0.227 NA
ATOM      5  N   UNL     1      -1.435  -2.112  -1.167  1.00  0.00    -0.337 N 
ATOM      6  C   UNL     1       0.214  -3.492  -0.894  1.00  0.00     0.089 A 
ATOM      7  C   UNL     1      -0.073  -2.177  -1.218  1.00  0.00     0.066 A 
ATOM      8  C   UNL     1       1.557  -3.884  -0.805  1.00  0.00     0.031 A 
ATOM      9  C   UNL     1       0.893  -1.209  -1.479  1.00  0.00     0.033 A 
ATOM     10  C   UNL     1       2.557  -2.909  -0.977  1.00  0.00     0.007 A 
ATOM     11  H   UNL     1      -1.998  -1.304  -1.392  1.00  0.00     0.168 HD
BRANCH   3  12
ATOM     12  C   UNL     1      -3.413  -3.580  -0.260  1.00  0.00     0.151 A 
ATOM     13  C   UNL     1      -4.449  -2.674   0.161  1.00  0.00     0.092 A 
ATOM     14  C   UNL     1      -5.471  -3.503   0.577  1.00  0.00     0.132 A 
ATOM     15  N   UNL     1      -5.047  -4.778   0.371  1.00  0.00    -0.283 N 
ATOM     16  N   UNL     1      -3.802  -4.856  -0.093  1.00  0.00    -0.170 NA
ATOM     17  H   UNL     1      -5.541  -5.646   0.554  1.00  0.00     0.189 HD
BRANCH  13  18
ATOM     18  N   UNL     1      -4.565  -1.302   0.344  1.00  0.00    -0.304 N 
ATOM     19  O   UNL     1      -3.357  -0.438  -1.404  1.00  0.00    -0.248 OA
ATOM     20  C   UNL     1      -3.854  -0.320  -0.290  1.00  0.00     0.319 C 
ATOM     21  N   UNL     1      -3.741   0.818   0.482  1.00  0.00    -0.332 N 
ATOM     22  H   UNL     1      -5.349  -0.990   0.898  1.00  0.00     0.172 HD
ATOM     23  H   UNL     1      -4.024   0.754   1.450  1.00  0.00     0.165 HD
BRANCH  21  24
ATOM     24  C   UNL     1      -3.038   2.024   0.078  1.00  0.00     0.044 C 
ATOM     25  C   UNL     1      -3.865   3.123  -0.560  1.00  0.00     0.031 C 
ATOM     26  C   UNL     1      -3.375   3.292   0.846  1.00  0.00     0.031 C 
BRANCH  24  27
ATOM     27  C   UNL     1      -1.621   1.792  -0.461  1.00  0.00     0.057 CG0
ATOM     28  G   UNL     1      -0.651   2.974  -0.486  1.00  0.00     0.000 G0
ENDBRANCH  24  27
ENDBRANCH  21  24
ENDBRANCH  13  18
ENDBRANCH   3  12
ENDBRANCH   1   2
BRANCH   1  29
ATOM     29  N   UNL     1       3.638  -0.020  -0.002  1.00  0.00    -0.291 NA
ATOM     30  C   UNL     1       5.005  -0.376   0.415  1.00  0.00     0.113 C 
ATOM     31  C   UNL     1       3.356   1.430   0.197  1.00  0.00     0.085 C 
ATOM     32  C   UNL     1       6.008   0.755   0.158  1.00  0.00     0.175 C 
ATOM     33  C   UNL     1       4.311   2.051   1.245  1.00  0.00     0.179 C 
ATOM     34  O   UNL     1       5.687   1.970   0.848  1.00  0.00    -0.378 OA
BRANCH  31  35
ATOM     35  C   UNL     1       1.883   1.600   0.610  1.00  0.00     0.050 C 
BRANCH  35  36
ATOM     36  C   UNL     1       1.418   3.053   0.724  1.00  0.00     0.162 C 
BRANCH  36  37
ATOM     37  O   UNL     1      -0.013   3.128   0.788  1.00  0.00    -0.381 OA
BRANCH  37  38
ATOM     38  C   UNL     1      -0.651   2.974  -0.486  1.00  0.00     0.162 CG0
ATOM     39  G   UNL     1      -1.621   1.792  -0.461  1.00  0.00     0.000 G0
ENDBRANCH  37  38
ENDBRANCH  36  37
ENDBRANCH  35  36
ENDBRANCH  31  35
ENDBRANCH   1  29
TORSDOF 0
