REMARK SMILES N#CC1CN(C(=O)[C@@H]2NC(=O)c3c[nH]c4ncc(nc34)C3(CC3)CSC[C@@H]3C[C@H]32)C1
REMARK SMILES IDX 12 1 13 2 14 3 15 4 16 5 17 6 18 7 19 8 20 9 10 11 9 12
REMARK SMILES IDX 11 13 8 15 6 16 1 17 2 18 3 19 4 20 30 21 5 22 7 23 29 24
REMARK SMILES IDX 28 25 27 26 21 28 22 29 23 30 24 31 25 32 26 33
REMARK H PARENT 14 10 9 14
REMARK Flexibility Score:   64.900
ROOT
ATOM      1  C   UNL     1      -0.230   1.128  -2.739  1.00  0.00     0.085 A 
ATOM      2  C   UNL     1      -0.441   1.949  -3.839  1.00  0.00     0.100 A 
ATOM      3  N   UNL     1      -1.474   2.813  -3.547  1.00  0.00    -0.344 N 
ATOM      4  C   UNL     1      -1.935   2.566  -2.284  1.00  0.00     0.156 A 
ATOM      5  N   UNL     1      -2.959   3.175  -1.660  1.00  0.00    -0.235 NA
ATOM      6  C   UNL     1      -3.161   2.626  -0.424  1.00  0.00     0.138 A 
ATOM      7  C   UNL     1      -2.405   1.599   0.169  1.00  0.00     0.067 A 
ATOM      8  N   UNL     1      -1.347   1.077  -0.499  1.00  0.00    -0.246 NA
ATOM      9  C   UNL     1      -1.157   1.552  -1.754  1.00  0.00     0.120 A 
ATOM     10  H   UNL     1      -1.865   3.510  -4.165  1.00  0.00     0.168 HD
ENDROOT
BRANCH   1  11
ATOM     11  C   UNL     1       0.727   0.036  -2.628  1.00  0.00     0.255 C 
ATOM     12  N   UNL     1       0.647  -0.639  -1.434  1.00  0.00    -0.340 N 
ATOM     13  O   UNL     1       1.528  -0.246  -3.511  1.00  0.00    -0.269 OA
ATOM     14  H   UNL     1      -0.088  -0.363  -0.788  1.00  0.00     0.164 HD
BRANCH  12  15
ATOM     15  C   UNL     1       1.390  -1.846  -1.150  1.00  0.00     0.175 C 
BRANCH  15  16
ATOM     16  C   UNL     1       2.913  -1.655  -0.919  1.00  0.00     0.245 C 
ATOM     17  N   UNL     1       4.583   2.148   2.829  1.00  0.00    -0.198 NA
ATOM     18  C   UNL     1       4.401   1.739   1.759  1.00  0.00     0.069 C 
ATOM     19  C   UNL     1       4.157   1.232   0.430  1.00  0.00     0.131 C 
ATOM     20  C   UNL     1       4.681  -0.183   0.153  1.00  0.00     0.140 C 
ATOM     21  C   UNL     1       2.735   0.699   0.186  1.00  0.00     0.140 C 
ATOM     22  N   UNL     1       3.353  -0.495  -0.342  1.00  0.00    -0.338 N 
ATOM     23  O   UNL     1       3.697  -2.597  -1.088  1.00  0.00    -0.272 OA
ENDBRANCH  15  16
BRANCH  15  24
ATOM     24  C   UNL     1       0.754  -2.484   0.072  1.00  0.00     0.025 C 
ATOM     25  C   UNL     1       0.567  -3.978   0.134  1.00  0.00     0.011 C 
ATOM     26  C   UNL     1      -0.642  -3.082  -0.000  1.00  0.00     0.005 CG0
ATOM     27  G   UNL     1      -1.605  -3.000   1.145  1.00  0.00     0.000 G0
ENDBRANCH  15  24
ENDBRANCH  12  15
ENDBRANCH   1  11
BRANCH   7  28
ATOM     28  C   UNL     1      -2.695   1.002   1.564  1.00  0.00     0.023 C 
ATOM     29  C   UNL     1      -4.008   1.270   2.286  1.00  0.00     0.015 C 
ATOM     30  C   UNL     1      -2.765   1.982   2.730  1.00  0.00     0.015 C 
BRANCH  28  31
ATOM     31  C   UNL     1      -2.019  -0.343   1.843  1.00  0.00     0.083 C 
BRANCH  31  32
ATOM     32  S   UNL     1      -2.804  -1.667   0.872  1.00  0.00    -0.161 SA
BRANCH  32  33
ATOM     33  C   UNL     1      -1.605  -3.000   1.145  1.00  0.00     0.073 CG0
ATOM     34  G   UNL     1      -0.642  -3.082  -0.000  1.00  0.00     0.000 G0
ENDBRANCH  32  33
ENDBRANCH  31  32
ENDBRANCH  28  31
ENDBRANCH   7  28
TORSDOF 1
