REMARK SMILES O=C1Nc2c[nH]nc2-c2nc3ccc(cc3[nH]2)CN2CCOC[C@@H]2CCNCCCC2(CC2)N1
REMARK SMILES IDX 9 1 10 2 11 3 12 4 13 5 14 6 15 7 16 8 17 9 8 11 4 12 5 13
REMARK SMILES IDX 6 14 7 15 3 17 1 18 2 19 34 20 31 23 32 24 33 25 30 26 29 27
REMARK SMILES IDX 18 29 19 30 20 31 24 32 21 33 23 34 22 35 25 36 26 37 27 38
REMARK SMILES IDX 28 40
REMARK H PARENT 17 10 6 16 3 21 34 22 27 39
REMARK Flexibility Score:   58.900
ROOT
ATOM      1  C   UNL     1       1.307   3.651   0.456  1.00  0.00     0.161 A 
ATOM      2  N   UNL     1       0.278   4.475   0.310  1.00  0.00    -0.227 NA
ATOM      3  C   UNL     1      -0.844   3.681   0.291  1.00  0.00     0.089 A 
ATOM      4  C   UNL     1      -2.200   4.012   0.150  1.00  0.00     0.031 A 
ATOM      5  C   UNL     1      -3.155   2.979   0.168  1.00  0.00     0.007 A 
ATOM      6  C   UNL     1      -2.775   1.638   0.336  1.00  0.00    -0.032 A 
ATOM      7  C   UNL     1      -1.418   1.307   0.482  1.00  0.00     0.033 A 
ATOM      8  C   UNL     1      -0.498   2.350   0.444  1.00  0.00     0.066 A 
ATOM      9  N   UNL     1       0.864   2.361   0.514  1.00  0.00    -0.337 N 
ATOM     10  H   UNL     1       1.454   1.542   0.507  1.00  0.00     0.168 HD
ENDROOT
BRANCH   1  11
ATOM     11  C   UNL     1       2.817   4.111   0.594  1.00  0.00     0.151 A 
ATOM     12  C   UNL     1       4.026   3.375   0.844  1.00  0.00     0.092 A 
ATOM     13  C   UNL     1       4.981   4.357   1.028  1.00  0.00     0.132 A 
ATOM     14  N   UNL     1       4.363   5.549   0.820  1.00  0.00    -0.283 N 
ATOM     15  N   UNL     1       3.065   5.434   0.562  1.00  0.00    -0.170 NA
ATOM     16  H   UNL     1       4.762   6.482   0.848  1.00  0.00     0.189 HD
BRANCH  12  17
ATOM     17  N   UNL     1       4.413   2.045   0.965  1.00  0.00    -0.304 N 
ATOM     18  O   UNL     1       2.805   0.940  -0.266  1.00  0.00    -0.248 OA
ATOM     19  C   UNL     1       3.779   0.934   0.475  1.00  0.00     0.319 C 
ATOM     20  N   UNL     1       4.379  -0.234   0.899  1.00  0.00    -0.332 N 
ATOM     21  H   UNL     1       5.359   1.899   1.287  1.00  0.00     0.172 HD
ATOM     22  H   UNL     1       5.068  -0.195   1.636  1.00  0.00     0.165 HD
BRANCH  20  23
ATOM     23  C   UNL     1       3.986  -1.543   0.417  1.00  0.00     0.042 C 
ATOM     24  C   UNL     1       5.126  -2.456  -0.009  1.00  0.00     0.031 C 
ATOM     25  C   UNL     1       4.223  -1.867  -1.048  1.00  0.00     0.031 C 
BRANCH  23  26
ATOM     26  C   UNL     1       2.836  -2.175   1.212  1.00  0.00     0.030 C 
BRANCH  26  27
ATOM     27  C   UNL     1       2.131  -3.384   0.581  1.00  0.00     0.018 CG0
ATOM     28  G   UNL     1       0.972  -3.004  -0.351  1.00  0.00     0.000 G0
ENDBRANCH  26  27
ENDBRANCH  23  26
ENDBRANCH  20  23
ENDBRANCH  12  17
ENDBRANCH   1  11
BRANCH   6  29
ATOM     29  C   UNL     1      -3.799   0.522   0.374  1.00  0.00     0.120 C 
BRANCH  29  30
ATOM     30  N   UNL     1      -3.686  -0.344  -0.821  1.00  0.00    -0.292 NA
ATOM     31  C   UNL     1      -4.722   0.037  -1.811  1.00  0.00     0.113 C 
ATOM     32  C   UNL     1      -3.852  -1.784  -0.511  1.00  0.00     0.084 C 
ATOM     33  C   UNL     1      -6.028  -0.786  -1.717  1.00  0.00     0.175 C 
ATOM     34  C   UNL     1      -5.235  -2.074   0.125  1.00  0.00     0.179 C 
ATOM     35  O   UNL     1      -6.287  -1.232  -0.382  1.00  0.00    -0.378 OA
BRANCH  32  36
ATOM     36  C   UNL     1      -2.693  -2.395   0.308  1.00  0.00     0.037 C 
BRANCH  36  37
ATOM     37  C   UNL     1      -1.370  -2.410  -0.473  1.00  0.00     0.082 C 
BRANCH  37  38
ATOM     38  N   UNL     1      -0.267  -2.809   0.412  1.00  0.00    -0.317 NA
ATOM     39  H   UNL     1      -0.509  -3.679   0.885  1.00  0.00     0.122 HD
BRANCH  38  40
ATOM     40  C   UNL     1       0.972  -3.004  -0.351  1.00  0.00     0.081 CG0
ATOM     41  G   UNL     1       2.131  -3.384   0.581  1.00  0.00     0.000 G0
ENDBRANCH  38  40
ENDBRANCH  37  38
ENDBRANCH  36  37
ENDBRANCH  32  36
ENDBRANCH  29  30
ENDBRANCH   6  29
TORSDOF 0
