REMARK SMILES CN1CCN2c3ccc(cc3)-c3cnc4cccc(c4n3)-c3cc(F)c(c(F)c3)CN3CCOC[C@H]3CSC[C@@H]2C1
REMARK SMILES IDX 22 1 23 2 24 3 25 4 26 5 27 6 28 7 29 8 19 9 12 10 13 11
REMARK SMILES IDX 21 12 14 13 20 14 15 15 16 16 18 17 17 18 9 19 6 20 7 21
REMARK SMILES IDX 11 22 8 23 10 24 5 25 2 26 3 27 41 28 4 29 40 30 1 31 30 33
REMARK SMILES IDX 31 34 32 35 36 36 33 37 35 38 34 39 37 40 38 41 39 42
REMARK H PARENT
REMARK Flexibility Score:   82.900
ROOT
ATOM      1  C   UNL     1      -4.245  -0.261   0.797  1.00  0.00    -0.010 A 
ATOM      2  C   UNL     1      -4.469   0.750  -0.147  1.00  0.00     0.048 A 
ATOM      3  C   UNL     1      -3.772   1.957  -0.071  1.00  0.00     0.131 A 
ATOM      4  F   UNL     1      -4.025   2.894  -0.998  1.00  0.00    -0.207 F 
ATOM      5  C   UNL     1      -2.833   2.204   0.933  1.00  0.00     0.038 A 
ATOM      6  C   UNL     1      -2.658   1.217   1.900  1.00  0.00     0.131 A 
ATOM      7  F   UNL     1      -1.797   1.417   2.909  1.00  0.00    -0.207 F 
ATOM      8  C   UNL     1      -3.345   0.004   1.841  1.00  0.00     0.048 A 
ENDROOT
BRANCH   1   9
ATOM      9  C   UNL     1      -4.856  -1.596   0.632  1.00  0.00     0.010 A 
ATOM     10  C   UNL     1      -1.959  -3.607  -0.163  1.00  0.00     0.089 A 
ATOM     11  C   UNL     1      -2.546  -4.834  -0.397  1.00  0.00     0.140 A 
ATOM     12  N   UNL     1      -2.716  -2.546   0.197  1.00  0.00    -0.244 NA
ATOM     13  N   UNL     1      -3.882  -5.040  -0.271  1.00  0.00    -0.252 NA
ATOM     14  C   UNL     1      -4.048  -2.703   0.308  1.00  0.00     0.097 A 
ATOM     15  C   UNL     1      -4.632  -3.970   0.079  1.00  0.00     0.089 A 
ATOM     16  C   UNL     1      -6.007  -4.104   0.210  1.00  0.00     0.030 A 
ATOM     17  C   UNL     1      -6.243  -1.766   0.750  1.00  0.00     0.011 A 
ATOM     18  C   UNL     1      -6.816  -3.017   0.546  1.00  0.00     0.003 A 
BRANCH  10  19
ATOM     19  C   UNL     1      -0.535  -3.299  -0.282  1.00  0.00     0.002 A 
ATOM     20  C   UNL     1       2.094  -2.235  -0.592  1.00  0.00     0.037 A 
ATOM     21  C   UNL     1       1.413  -2.156   0.628  1.00  0.00     0.026 A 
ATOM     22  C   UNL     1       1.468  -2.955  -1.621  1.00  0.00     0.026 A 
ATOM     23  C   UNL     1       0.122  -2.664   0.780  1.00  0.00     0.012 A 
ATOM     24  C   UNL     1       0.174  -3.481  -1.473  1.00  0.00     0.012 A 
BRANCH  20  25
ATOM     25  N   UNL     1       3.290  -1.569  -0.799  1.00  0.00    -0.365 N 
ATOM     26  N   UNL     1       6.139  -0.669  -0.600  1.00  0.00    -0.303 NA
ATOM     27  C   UNL     1       5.706  -2.063  -0.837  1.00  0.00     0.105 C 
ATOM     28  C   UNL     1       4.990   0.263  -0.580  1.00  0.00     0.110 C 
ATOM     29  C   UNL     1       4.361  -2.196  -1.588  1.00  0.00     0.132 C 
ATOM     30  C   UNL     1       3.637  -0.319  -0.059  1.00  0.00     0.106 CG0
ATOM     31  C   UNL     1       6.927  -0.578   0.627  1.00  0.00     0.105 C 
ATOM     32  G   UNL     1       2.531   0.766  -0.213  1.00  0.00     0.000 G0
ENDBRANCH  20  25
ENDBRANCH  10  19
ENDBRANCH   1   9
BRANCH   5  33
ATOM     33  C   UNL     1      -2.059   3.495   0.971  1.00  0.00     0.126 C 
BRANCH  33  34
ATOM     34  N   UNL     1      -1.132   3.627  -0.162  1.00  0.00    -0.291 NA
ATOM     35  C   UNL     1      -1.337   4.920  -0.853  1.00  0.00     0.113 C 
ATOM     36  C   UNL     1       0.322   3.349   0.062  1.00  0.00     0.092 C 
ATOM     37  C   UNL     1      -0.145   5.310  -1.730  1.00  0.00     0.175 C 
ATOM     38  C   UNL     1       1.119   4.674   0.205  1.00  0.00     0.180 C 
ATOM     39  O   UNL     1       1.038   5.524  -0.953  1.00  0.00    -0.378 OA
BRANCH  36  40
ATOM     40  C   UNL     1       0.669   2.345   1.187  1.00  0.00     0.091 C 
BRANCH  40  41
ATOM     41  S   UNL     1       2.436   1.836   1.276  1.00  0.00    -0.158 SA
BRANCH  41  42
ATOM     42  C   UNL     1       2.531   0.766  -0.213  1.00  0.00     0.096 CG0
ATOM     43  G   UNL     1       3.637  -0.319  -0.059  1.00  0.00     0.000 G0
ENDBRANCH  41  42
ENDBRANCH  40  41
ENDBRANCH  36  40
ENDBRANCH  33  34
ENDBRANCH   5  33
TORSDOF 0
