REMARK SMILES N#C[C@]12CCCSCC[C@]3(CC3)c3cnc4[nH]cc(c4n3)C(=O)N[C@H](C3CC3)C(=O)N(C1)C2
REMARK SMILES IDX 13 1 14 2 15 3 16 4 17 5 18 6 19 7 20 8 21 9 22 11 24 12
REMARK SMILES IDX 23 13 25 15 29 16 30 17 31 18 1 19 2 20 3 21 32 22 33 23
REMARK SMILES IDX 4 24 26 26 27 27 28 28 10 29 12 30 11 31 9 32 8 33 7 34 6 35
REMARK SMILES IDX 5 36
REMARK H PARENT 17 10 24 14
REMARK Flexibility Score:  115.900
ROOT
ATOM      1  C   UNL     1      -3.329  -1.072   0.111  1.00  0.00     0.066 A 
ATOM      2  C   UNL     1      -3.963  -1.983   0.968  1.00  0.00     0.138 A 
ATOM      3  N   UNL     1      -3.398  -3.106   1.494  1.00  0.00    -0.235 NA
ATOM      4  C   UNL     1      -2.116  -3.219   1.099  1.00  0.00     0.156 A 
ATOM      5  N   UNL     1      -1.245  -4.197   1.483  1.00  0.00    -0.344 N 
ATOM      6  C   UNL     1      -0.004  -3.946   0.946  1.00  0.00     0.100 A 
ATOM      7  C   UNL     1      -0.093  -2.804   0.157  1.00  0.00     0.085 A 
ATOM      8  C   UNL     1      -1.436  -2.352   0.253  1.00  0.00     0.120 A 
ATOM      9  N   UNL     1      -2.039  -1.257  -0.270  1.00  0.00    -0.246 NA
ATOM     10  H   UNL     1      -1.495  -4.962   2.094  1.00  0.00     0.168 HD
ENDROOT
BRANCH   7  11
ATOM     11  C   UNL     1       0.976  -2.177  -0.598  1.00  0.00     0.255 C 
ATOM     12  N   UNL     1       2.176  -2.122   0.075  1.00  0.00    -0.340 N 
ATOM     13  O   UNL     1       0.821  -1.695  -1.713  1.00  0.00    -0.269 OA
ATOM     14  H   UNL     1       2.254  -2.537   0.991  1.00  0.00     0.164 HD
BRANCH  12  15
ATOM     15  C   UNL     1       3.365  -1.607  -0.579  1.00  0.00     0.175 C 
BRANCH  15  16
ATOM     16  C   UNL     1       3.388  -0.084  -0.896  1.00  0.00     0.245 C 
ATOM     17  O   UNL     1       4.129   0.355  -1.784  1.00  0.00    -0.272 OA
BRANCH  16  18
ATOM     18  N   UNL     1       2.724   0.785  -0.077  1.00  0.00    -0.338 N 
ATOM     19  N   UNL     1       2.223   3.582   3.112  1.00  0.00    -0.198 NA
ATOM     20  C   UNL     1       1.958   2.980   2.157  1.00  0.00     0.073 C 
ATOM     21  C   UNL     1       1.637   2.211   0.969  1.00  0.00     0.092 C 
ATOM     22  C   UNL     1       2.734   2.237  -0.122  1.00  0.00     0.143 C 
ATOM     23  C   UNL     1       1.947   0.695   1.136  1.00  0.00     0.143 C 
BRANCH  21  24
ATOM     24  C   UNL     1       0.199   2.459   0.472  1.00  0.00     0.027 CG0
ATOM     25  G   UNL     1      -0.044   3.909   0.028  1.00  0.00     0.000 G0
ENDBRANCH  21  24
ENDBRANCH  16  18
ENDBRANCH  15  16
BRANCH  15  26
ATOM     26  C   UNL     1       4.553  -1.978   0.282  1.00  0.00     0.021 C 
ATOM     27  C   UNL     1       5.030  -3.410   0.353  1.00  0.00     0.006 C 
ATOM     28  C   UNL     1       5.863  -2.376  -0.352  1.00  0.00     0.006 C 
ENDBRANCH  15  26
ENDBRANCH  12  15
ENDBRANCH   7  11
BRANCH   1  29
ATOM     29  C   UNL     1      -3.997   0.226  -0.358  1.00  0.00     0.015 C 
ATOM     30  C   UNL     1      -5.478   0.264  -0.698  1.00  0.00     0.014 C 
ATOM     31  C   UNL     1      -4.468   0.248  -1.806  1.00  0.00     0.014 C 
BRANCH  29  32
ATOM     32  C   UNL     1      -3.267   1.449   0.190  1.00  0.00     0.024 C 
BRANCH  32  33
ATOM     33  C   UNL     1      -3.858   2.824  -0.086  1.00  0.00     0.070 C 
BRANCH  33  34
ATOM     34  S   UNL     1      -2.780   4.133   0.611  1.00  0.00    -0.162 SA
BRANCH  34  35
ATOM     35  C   UNL     1      -1.421   4.131  -0.612  1.00  0.00     0.069 C 
BRANCH  35  36
ATOM     36  C   UNL     1      -0.044   3.909   0.028  1.00  0.00     0.013 CG0
ATOM     37  G   UNL     1       0.199   2.459   0.472  1.00  0.00     0.000 G0
ENDBRANCH  35  36
ENDBRANCH  34  35
ENDBRANCH  33  34
ENDBRANCH  32  33
ENDBRANCH  29  32
ENDBRANCH   1  29
TORSDOF 1
