REMARK SMILES Fc1cc2cc(F)c1CN1CCOC[C@@H]1CNCC1(CCNCC1)n1cc(cn1)-c1cnc3cccc-2c3n1
REMARK SMILES IDX 1 1 2 2 3 3 4 4 5 5 6 6 7 7 8 8 9 9 10 10 11 11 15 12 12 13
REMARK SMILES IDX 14 14 13 15 16 16 17 17 18 19 37 21 36 22 38 23 35 24 39 25
REMARK SMILES IDX 33 26 34 27 30 28 32 29 31 30 27 31 26 32 28 33 25 34 29 35
REMARK SMILES IDX 19 36 20 37 24 38 21 39 23 40 22 41
REMARK H PARENT 17 18 22 42
REMARK Flexibility Score:   78.900
ROOT
ATOM      1  F   UNL     1       2.249   0.622   2.302  1.00  0.00    -0.207 F 
ATOM      2  C   UNL     1       2.751   0.272   1.109  1.00  0.00     0.131 A 
ATOM      3  C   UNL     1       2.994  -1.075   0.863  1.00  0.00     0.048 A 
ATOM      4  C   UNL     1       3.457  -1.508  -0.392  1.00  0.00    -0.010 A 
ATOM      5  C   UNL     1       3.770  -0.533  -1.345  1.00  0.00     0.048 A 
ATOM      6  C   UNL     1       3.538   0.818  -1.073  1.00  0.00     0.131 A 
ATOM      7  F   UNL     1       3.836   1.713  -2.026  1.00  0.00    -0.207 F 
ATOM      8  C   UNL     1       2.986   1.240   0.138  1.00  0.00     0.038 A 
ENDROOT
BRANCH   8   9
ATOM      9  C   UNL     1       2.603   2.673   0.386  1.00  0.00     0.126 C 
BRANCH   9  10
ATOM     10  N   UNL     1       1.406   3.044  -0.401  1.00  0.00    -0.290 NA
ATOM     11  C   UNL     1       1.775   4.045  -1.436  1.00  0.00     0.113 C 
ATOM     12  C   UNL     1       0.327   3.653   0.426  1.00  0.00     0.096 C 
ATOM     13  C   UNL     1       1.653   5.519  -0.986  1.00  0.00     0.175 C 
ATOM     14  C   UNL     1       0.807   4.935   1.157  1.00  0.00     0.180 C 
ATOM     15  O   UNL     1       1.815   5.661   0.429  1.00  0.00    -0.378 OA
BRANCH  12  16
ATOM     16  C   UNL     1      -0.422   2.696   1.395  1.00  0.00     0.102 C 
BRANCH  16  17
ATOM     17  N   UNL     1      -1.117   1.627   0.658  1.00  0.00    -0.313 NA
ATOM     18  H   UNL     1      -0.419   0.950   0.341  1.00  0.00     0.122 HD
BRANCH  17  19
ATOM     19  C   UNL     1      -2.174   0.982   1.457  1.00  0.00     0.111 CG0
ATOM     20  G   UNL     1      -3.125   0.005   0.669  1.00  0.00     0.000 G0
ENDBRANCH  17  19
ENDBRANCH  16  17
ENDBRANCH  12  16
ENDBRANCH   9  10
ENDBRANCH   8   9
BRANCH   4  21
ATOM     21  C   UNL     1       3.472  -2.948  -0.722  1.00  0.00     0.010 A 
ATOM     22  C   UNL     1       4.655  -3.594  -1.107  1.00  0.00     0.011 A 
ATOM     23  C   UNL     1       2.274  -3.685  -0.644  1.00  0.00     0.097 A 
ATOM     24  C   UNL     1       4.647  -4.958  -1.389  1.00  0.00     0.003 A 
ATOM     25  N   UNL     1       1.133  -3.056  -0.303  1.00  0.00    -0.244 NA
ATOM     26  C   UNL     1       2.268  -5.074  -0.907  1.00  0.00     0.089 A 
ATOM     27  C   UNL     1       3.458  -5.683  -1.281  1.00  0.00     0.030 A 
ATOM     28  C   UNL     1       0.008  -3.783  -0.171  1.00  0.00     0.092 A 
ATOM     29  N   UNL     1       1.136  -5.806  -0.792  1.00  0.00    -0.252 NA
ATOM     30  C   UNL     1       0.014  -5.142  -0.409  1.00  0.00     0.140 A 
BRANCH  28  31
ATOM     31  C   UNL     1      -1.136  -3.041   0.295  1.00  0.00     0.040 A 
ATOM     32  C   UNL     1      -1.412  -1.740  -0.073  1.00  0.00     0.119 A 
ATOM     33  C   UNL     1      -2.094  -3.332   1.280  1.00  0.00     0.145 A 
ATOM     34  N   UNL     1      -2.502  -1.340   0.654  1.00  0.00    -0.265 N 
ATOM     35  N   UNL     1      -2.896  -2.296   1.536  1.00  0.00    -0.180 NA
BRANCH  34  36
ATOM     36  C   UNL     1      -3.125   0.005   0.669  1.00  0.00     0.078 CG0
ATOM     37  C   UNL     1      -4.492  -0.037   1.416  1.00  0.00     0.047 C 
ATOM     38  C   UNL     1      -3.409   0.542  -0.772  1.00  0.00     0.047 C 
ATOM     39  C   UNL     1      -5.529  -0.915   0.702  1.00  0.00     0.083 C 
ATOM     40  C   UNL     1      -4.835   0.290  -1.271  1.00  0.00     0.083 C 
ATOM     41  N   UNL     1      -5.364  -0.955  -0.751  1.00  0.00    -0.317 NA
ATOM     42  H   UNL     1      -6.254  -1.186  -1.191  1.00  0.00     0.122 HD
ATOM     43  G   UNL     1      -2.174   0.982   1.457  1.00  0.00     0.000 G0
ENDBRANCH  34  36
ENDBRANCH  28  31
ENDBRANCH   4  21
TORSDOF 0
