REMARK SMILES N#C[C@@H]1C[C@H]2CNCC3(CC3)c3cnc4[nH]cc(c4n3)C(=O)N[C@H](C3CC3)C(=O)N2C1
REMARK SMILES IDX 12 1 13 2 14 3 15 4 16 5 17 6 18 7 19 8 20 9 21 11 23 12
REMARK SMILES IDX 22 13 24 15 28 16 29 17 30 18 1 19 2 20 3 21 4 22 31 23 5 24
REMARK SMILES IDX 25 26 26 27 27 28 9 29 10 30 11 31 8 32 7 33 6 35
REMARK H PARENT 16 10 23 14 7 34
REMARK Flexibility Score:  122.900
ROOT
ATOM      1  C   UNL     1       2.629  -1.093  -0.309  1.00  0.00     0.067 A 
ATOM      2  C   UNL     1       3.483  -2.161  -0.633  1.00  0.00     0.138 A 
ATOM      3  N   UNL     1       3.125  -3.466  -0.753  1.00  0.00    -0.235 NA
ATOM      4  C   UNL     1       1.821  -3.624  -0.470  1.00  0.00     0.156 A 
ATOM      5  N   UNL     1       1.156  -4.815  -0.438  1.00  0.00    -0.344 N 
ATOM      6  C   UNL     1      -0.132  -4.607  -0.021  1.00  0.00     0.100 A 
ATOM      7  C   UNL     1      -0.319  -3.244   0.181  1.00  0.00     0.085 A 
ATOM      8  C   UNL     1       0.923  -2.619  -0.127  1.00  0.00     0.120 A 
ATOM      9  N   UNL     1       1.304  -1.311  -0.067  1.00  0.00    -0.246 NA
ATOM     10  H   UNL     1       1.586  -5.707  -0.643  1.00  0.00     0.168 HD
ENDROOT
BRANCH   7  11
ATOM     11  C   UNL     1      -1.545  -2.653   0.694  1.00  0.00     0.255 C 
ATOM     12  N   UNL     1      -1.675  -1.312   0.457  1.00  0.00    -0.340 N 
ATOM     13  O   UNL     1      -2.376  -3.315   1.308  1.00  0.00    -0.269 OA
ATOM     14  H   UNL     1      -0.942  -0.838  -0.062  1.00  0.00     0.164 HD
BRANCH  12  15
ATOM     15  C   UNL     1      -2.664  -0.481   1.129  1.00  0.00     0.175 C 
BRANCH  15  16
ATOM     16  C   UNL     1      -1.974   0.881   1.396  1.00  0.00     0.245 C 
ATOM     17  O   UNL     1      -2.142   1.542   2.418  1.00  0.00    -0.272 OA
BRANCH  16  18
ATOM     18  N   UNL     1      -1.284   1.392   0.298  1.00  0.00    -0.335 N 
ATOM     19  N   UNL     1      -0.038   2.919  -3.403  1.00  0.00    -0.198 NA
ATOM     20  C   UNL     1      -0.497   3.122  -2.357  1.00  0.00     0.067 C 
ATOM     21  C   UNL     1      -1.081   3.380  -1.030  1.00  0.00     0.114 C 
ATOM     22  C   UNL     1      -0.016   3.358   0.067  1.00  0.00     0.047 C 
ATOM     23  C   UNL     1      -2.031   2.251  -0.619  1.00  0.00     0.138 C 
ATOM     24  C   UNL     1       0.093   1.868   0.400  1.00  0.00     0.100 CG0
ATOM     25  G   UNL     1       0.870   1.569   1.696  1.00  0.00     0.000 G0
ENDBRANCH  16  18
ENDBRANCH  15  16
BRANCH  15  26
ATOM     26  C   UNL     1      -3.946  -0.308   0.348  1.00  0.00     0.021 C 
ATOM     27  C   UNL     1      -4.753  -1.490  -0.140  1.00  0.00     0.006 C 
ATOM     28  C   UNL     1      -4.073  -0.592  -1.134  1.00  0.00     0.006 C 
ENDBRANCH  15  26
ENDBRANCH  12  15
ENDBRANCH   7  11
BRANCH   1  29
ATOM     29  C   UNL     1       3.174   0.334  -0.136  1.00  0.00     0.027 C 
ATOM     30  C   UNL     1       4.349   0.782  -1.017  1.00  0.00     0.016 C 
ATOM     31  C   UNL     1       2.991   1.331  -1.281  1.00  0.00     0.016 C 
BRANCH  29  32
ATOM     32  C   UNL     1       3.179   0.823   1.309  1.00  0.00     0.094 C 
BRANCH  32  33
ATOM     33  N   UNL     1       2.290   1.959   1.605  1.00  0.00    -0.314 NA
ATOM     34  H   UNL     1       2.563   2.313   2.524  1.00  0.00     0.122 HD
BRANCH  33  35
ATOM     35  C   UNL     1       0.870   1.569   1.696  1.00  0.00     0.106 CG0
ATOM     36  G   UNL     1       0.093   1.868   0.400  1.00  0.00     0.000 G0
ENDBRANCH  33  35
ENDBRANCH  32  33
ENDBRANCH  29  32
ENDBRANCH   1  29
TORSDOF 1
