REMARK SMILES O=C1Nc2c[nH]nc2-c2nc3ccc(cc3[nH]2)CN2CCOC[C@H]2CNCOCC2(CC2)N1
REMARK SMILES IDX 19 1 20 2 21 3 22 4 23 5 24 6 18 7 14 8 9 9 10 10 17 11
REMARK SMILES IDX 11 12 16 13 12 14 15 15 13 16 8 18 4 19 5 20 6 21 7 22 3 24
REMARK SMILES IDX 1 25 2 26 33 27 30 30 31 31 32 32 25 34 26 35 27 37 28 38
REMARK SMILES IDX 29 39
REMARK H PARENT 17 17 6 23 3 28 33 29 26 36
REMARK Flexibility Score:  190.900
ROOT
ATOM      1  N   UNL     1       3.709   0.114  -1.819  1.00  0.00    -0.290 NA
ATOM      2  C   UNL     1       4.999  -0.323  -2.428  1.00  0.00     0.113 C 
ATOM      3  C   UNL     1       5.612  -1.607  -1.817  1.00  0.00     0.175 C 
ATOM      4  O   UNL     1       5.239  -1.780  -0.448  1.00  0.00    -0.378 OA
ATOM      5  C   UNL     1       3.807  -1.903  -0.291  1.00  0.00     0.180 C 
ATOM      6  C   UNL     1       3.009  -1.146  -1.383  1.00  0.00     0.096 C 
ENDROOT
BRANCH   1   7
ATOM      7  C   UNL     1       4.040   1.077  -0.725  1.00  0.00     0.120 C 
BRANCH   7   8
ATOM      8  C   UNL     1       2.849   1.649   0.016  1.00  0.00    -0.032 A 
ATOM      9  C   UNL     1      -1.446   2.938   0.457  1.00  0.00     0.161 A 
ATOM     10  N   UNL     1      -0.952   2.293   1.496  1.00  0.00    -0.227 NA
ATOM     11  N   UNL     1      -0.456   3.311  -0.413  1.00  0.00    -0.337 N 
ATOM     12  C   UNL     1       0.381   2.141   1.218  1.00  0.00     0.089 A 
ATOM     13  C   UNL     1       0.695   2.672  -0.029  1.00  0.00     0.066 A 
ATOM     14  C   UNL     1       1.375   1.493   1.961  1.00  0.00     0.031 A 
ATOM     15  C   UNL     1       1.920   2.460  -0.665  1.00  0.00     0.033 A 
ATOM     16  C   UNL     1       2.611   1.255   1.348  1.00  0.00     0.007 A 
ATOM     17  H   UNL     1      -0.625   3.791  -1.284  1.00  0.00     0.168 HD
BRANCH   9  18
ATOM     18  C   UNL     1      -2.951   3.269   0.221  1.00  0.00     0.151 A 
ATOM     19  C   UNL     1      -4.068   2.604   0.791  1.00  0.00     0.092 A 
ATOM     20  C   UNL     1      -5.131   3.435   0.529  1.00  0.00     0.132 A 
ATOM     21  N   UNL     1      -4.644   4.409  -0.298  1.00  0.00    -0.283 N 
ATOM     22  N   UNL     1      -3.327   4.304  -0.548  1.00  0.00    -0.170 NA
ATOM     23  H   UNL     1      -5.157   5.165  -0.740  1.00  0.00     0.189 HD
BRANCH  19  24
ATOM     24  N   UNL     1      -4.182   1.371   1.414  1.00  0.00    -0.304 N 
ATOM     25  O   UNL     1      -2.756   0.240  -0.028  1.00  0.00    -0.248 OA
ATOM     26  C   UNL     1      -3.441   0.278   0.989  1.00  0.00     0.319 C 
ATOM     27  N   UNL     1      -3.660  -0.828   1.788  1.00  0.00    -0.330 N 
ATOM     28  H   UNL     1      -5.033   1.177   1.917  1.00  0.00     0.172 HD
ATOM     29  H   UNL     1      -4.037  -0.678   2.712  1.00  0.00     0.166 HD
BRANCH  27  30
ATOM     30  C   UNL     1      -3.222  -2.163   1.430  1.00  0.00     0.065 CG0
ATOM     31  C   UNL     1      -4.262  -3.270   1.563  1.00  0.00     0.033 C 
ATOM     32  C   UNL     1      -3.831  -2.829   0.205  1.00  0.00     0.033 C 
ATOM     33  G   UNL     1      -1.793  -2.526   1.840  1.00  0.00     0.000 G0
ENDBRANCH  27  30
ENDBRANCH  19  24
ENDBRANCH   9  18
ENDBRANCH   7   8
ENDBRANCH   1   7
BRANCH   6  34
ATOM     34  C   UNL     1       1.493  -1.004  -1.074  1.00  0.00     0.104 C 
BRANCH  34  35
ATOM     35  N   UNL     1       0.851  -2.204  -0.519  1.00  0.00    -0.293 NA
ATOM     36  H   UNL     1       0.721  -2.911  -1.238  1.00  0.00     0.125 HD
BRANCH  35  37
ATOM     37  C   UNL     1      -0.475  -1.849  -0.007  1.00  0.00     0.244 C 
BRANCH  37  38
ATOM     38  O   UNL     1      -0.987  -2.948   0.734  1.00  0.00    -0.364 OA
BRANCH  38  39
ATOM     39  C   UNL     1      -1.793  -2.526   1.840  1.00  0.00     0.190 CG0
ATOM     40  G   UNL     1      -3.222  -2.163   1.430  1.00  0.00     0.000 G0
ENDBRANCH  38  39
ENDBRANCH  37  38
ENDBRANCH  35  37
ENDBRANCH  34  35
ENDBRANCH   6  34
TORSDOF 0
