REMARK SMILES CC(C)(C)[C@H]1NC(=O)c2c[nH]c3ncc(nc23)[C@]2(CC2)CNC[C@@]2(C#N)CN(C2)C1=O
REMARK SMILES IDX 9 1 10 2 11 3 12 4 13 5 14 6 15 7 16 8 17 9 7 11 6 12 8 13
REMARK SMILES IDX 5 15 2 16 1 17 3 18 4 19 30 20 31 21 28 22 27 23 29 24 24 25
REMARK SMILES IDX 25 26 26 27 18 29 19 30 20 31 21 32 22 33 23 35
REMARK H PARENT 11 10 6 14 22 34
REMARK Flexibility Score:  106.900
ROOT
ATOM      1  C   UNL     1      -0.245  -2.757  -1.390  1.00  0.00     0.085 A 
ATOM      2  C   UNL     1      -0.307  -3.689  -2.420  1.00  0.00     0.100 A 
ATOM      3  N   UNL     1       0.923  -3.756  -3.026  1.00  0.00    -0.344 N 
ATOM      4  C   UNL     1       1.786  -2.904  -2.397  1.00  0.00     0.156 A 
ATOM      5  N   UNL     1       3.074  -2.697  -2.726  1.00  0.00    -0.235 NA
ATOM      6  C   UNL     1       3.645  -1.804  -1.872  1.00  0.00     0.138 A 
ATOM      7  C   UNL     1       3.011  -1.183  -0.784  1.00  0.00     0.067 A 
ATOM      8  N   UNL     1       1.698  -1.417  -0.515  1.00  0.00    -0.246 NA
ATOM      9  C   UNL     1       1.095  -2.294  -1.357  1.00  0.00     0.120 A 
ATOM     10  H   UNL     1       1.175  -4.338  -3.812  1.00  0.00     0.168 HD
ENDROOT
BRANCH   1  11
ATOM     11  C   UNL     1      -1.363  -2.377  -0.540  1.00  0.00     0.255 C 
ATOM     12  N   UNL     1      -1.231  -1.151   0.072  1.00  0.00    -0.340 N 
ATOM     13  O   UNL     1      -2.349  -3.095  -0.420  1.00  0.00    -0.269 OA
ATOM     14  H   UNL     1      -0.312  -0.716   0.010  1.00  0.00     0.164 HD
BRANCH  12  15
ATOM     15  C   UNL     1      -2.195  -0.604   1.034  1.00  0.00     0.177 C 
BRANCH  15  16
ATOM     16  C   UNL     1      -3.613  -0.190   0.464  1.00  0.00    -0.009 C 
ATOM     17  C   UNL     1      -4.651  -1.284   0.823  1.00  0.00     0.013 C 
ATOM     18  C   UNL     1      -3.634  -0.008  -1.067  1.00  0.00     0.013 C 
ATOM     19  C   UNL     1      -4.156   1.111   1.103  1.00  0.00     0.013 C 
ENDBRANCH  15  16
BRANCH  15  20
ATOM     20  C   UNL     1      -1.496   0.506   1.861  1.00  0.00     0.245 C 
ATOM     21  O   UNL     1      -1.536   0.486   3.096  1.00  0.00    -0.272 OA
BRANCH  20  22
ATOM     22  N   UNL     1      -0.911   1.561   1.218  1.00  0.00    -0.337 N 
ATOM     23  C   UNL     1      -0.302   2.742   1.811  1.00  0.00     0.145 C 
ATOM     24  C   UNL     1      -0.773   2.019  -0.149  1.00  0.00     0.145 C 
ATOM     25  C   UNL     1       0.188   3.115   0.390  1.00  0.00     0.105 CG0
ATOM     26  C   UNL     1      -0.196   4.460  -0.004  1.00  0.00     0.074 C 
ATOM     27  N   UNL     1      -0.492   5.536  -0.322  1.00  0.00    -0.198 NA
ATOM     28  G   UNL     1       1.690   2.907   0.110  1.00  0.00     0.000 G0
ENDBRANCH  20  22
ENDBRANCH  15  20
ENDBRANCH  12  15
ENDBRANCH   1  11
BRANCH   7  29
ATOM     29  C   UNL     1       3.767  -0.221   0.136  1.00  0.00     0.027 C 
ATOM     30  C   UNL     1       5.154  -0.607   0.637  1.00  0.00     0.016 C 
ATOM     31  C   UNL     1       3.991  -0.666   1.578  1.00  0.00     0.016 C 
BRANCH  29  32
ATOM     32  C   UNL     1       3.476   1.254  -0.106  1.00  0.00     0.094 C 
BRANCH  32  33
ATOM     33  N   UNL     1       2.121   1.533   0.360  1.00  0.00    -0.314 NA
ATOM     34  H   UNL     1       2.050   1.295   1.349  1.00  0.00     0.122 HD
BRANCH  33  35
ATOM     35  C   UNL     1       1.690   2.907   0.110  1.00  0.00     0.107 CG0
ATOM     36  G   UNL     1       0.188   3.115   0.390  1.00  0.00     0.000 G0
ENDBRANCH  33  35
ENDBRANCH  32  33
ENDBRANCH  29  32
ENDBRANCH   7  29
TORSDOF 1
