REMARK SMILES CN1CCN2c3ccc(cn3)-c3cnc4cccc(c4n3)-c3cc(F)c(c(F)c3)CN3CCS(=O)(=O)C[C@@H]3CSC[C@H]2C1
REMARK SMILES IDX 22 1 23 2 24 3 25 4 26 5 27 6 28 7 29 8 19 9 12 10 13 11
REMARK SMILES IDX 21 12 14 13 20 14 15 15 16 16 18 17 17 18 9 19 6 20 7 21
REMARK SMILES IDX 11 22 8 23 10 24 5 25 2 26 3 27 43 28 4 29 42 30 1 31 30 33
REMARK SMILES IDX 31 34 32 35 38 36 33 37 37 38 34 39 35 40 36 41 39 42 40 43
REMARK SMILES IDX 41 44
REMARK H PARENT
REMARK Flexibility Score:   82.900
ROOT
ATOM      1  C   UNL     1      -3.684  -2.142   0.408  1.00  0.00    -0.010 A 
ATOM      2  C   UNL     1      -4.231  -1.400  -0.647  1.00  0.00     0.048 A 
ATOM      3  C   UNL     1      -4.202  -0.004  -0.621  1.00  0.00     0.131 A 
ATOM      4  F   UNL     1      -4.746   0.664  -1.649  1.00  0.00    -0.207 F 
ATOM      5  C   UNL     1      -3.643   0.701   0.447  1.00  0.00     0.038 A 
ATOM      6  C   UNL     1      -3.112  -0.041   1.498  1.00  0.00     0.131 A 
ATOM      7  F   UNL     1      -2.574   0.586   2.553  1.00  0.00    -0.207 F 
ATOM      8  C   UNL     1      -3.129  -1.435   1.488  1.00  0.00     0.048 A 
ENDROOT
BRANCH   1   9
ATOM      9  C   UNL     1      -3.644  -3.618   0.369  1.00  0.00     0.010 A 
ATOM     10  C   UNL     1      -0.095  -4.277   0.222  1.00  0.00     0.091 A 
ATOM     11  C   UNL     1      -0.079  -5.657   0.212  1.00  0.00     0.140 A 
ATOM     12  N   UNL     1      -1.261  -3.599   0.273  1.00  0.00    -0.244 NA
ATOM     13  N   UNL     1      -1.216  -6.394   0.246  1.00  0.00    -0.252 NA
ATOM     14  C   UNL     1      -2.413  -4.297   0.314  1.00  0.00     0.097 A 
ATOM     15  C   UNL     1      -2.382  -5.712   0.294  1.00  0.00     0.089 A 
ATOM     16  C   UNL     1      -3.582  -6.409   0.320  1.00  0.00     0.030 A 
ATOM     17  C   UNL     1      -4.839  -4.356   0.389  1.00  0.00     0.011 A 
ATOM     18  C   UNL     1      -4.808  -5.746   0.365  1.00  0.00     0.003 A 
BRANCH  10  19
ATOM     19  C   UNL     1       1.078  -3.425   0.166  1.00  0.00     0.020 A 
ATOM     20  C   UNL     1       3.021  -1.452  -0.035  1.00  0.00     0.128 A 
ATOM     21  C   UNL     1       2.686  -1.969   1.216  1.00  0.00     0.047 A 
ATOM     22  N   UNL     1       2.476  -1.948  -1.164  1.00  0.00    -0.239 NA
ATOM     23  C   UNL     1       1.709  -2.960   1.318  1.00  0.00     0.016 A 
ATOM     24  C   UNL     1       1.517  -2.897  -1.042  1.00  0.00     0.124 A 
BRANCH  20  25
ATOM     25  N   UNL     1       3.869  -0.350  -0.110  1.00  0.00    -0.350 N 
ATOM     26  N   UNL     1       6.024   1.473  -0.888  1.00  0.00    -0.303 NA
ATOM     27  C   UNL     1       6.129   0.611   0.308  1.00  0.00     0.105 C 
ATOM     28  C   UNL     1       4.599   1.834  -1.080  1.00  0.00     0.110 C 
ATOM     29  C   UNL     1       5.273  -0.668   0.193  1.00  0.00     0.134 C 
ATOM     30  C   UNL     1       3.665   0.593  -1.242  1.00  0.00     0.107 CG0
ATOM     31  C   UNL     1       6.840   2.675  -0.728  1.00  0.00     0.105 C 
ATOM     32  G   UNL     1       2.194   1.068  -1.423  1.00  0.00     0.000 G0
ENDBRANCH  20  25
ENDBRANCH  10  19
ENDBRANCH   1   9
BRANCH   5  33
ATOM     33  C   UNL     1      -3.641   2.203   0.469  1.00  0.00     0.126 C 
BRANCH  33  34
ATOM     34  N   UNL     1      -2.600   2.804  -0.393  1.00  0.00    -0.293 NA
ATOM     35  C   UNL     1      -3.037   4.081  -0.968  1.00  0.00     0.101 C 
ATOM     36  C   UNL     1      -1.255   2.846   0.254  1.00  0.00     0.082 C 
ATOM     37  C   UNL     1      -3.257   5.189   0.045  1.00  0.00     0.152 C 
ATOM     38  C   UNL     1      -0.656   4.251   0.403  1.00  0.00     0.157 C 
ATOM     39  S   UNL     1      -1.828   5.395   1.076  1.00  0.00     0.153 S 
ATOM     40  O   UNL     1      -1.311   6.732   0.847  1.00  0.00    -0.229 OA
ATOM     41  O   UNL     1      -2.173   4.958   2.416  1.00  0.00    -0.229 OA
BRANCH  36  42
ATOM     42  C   UNL     1      -0.313   1.944  -0.591  1.00  0.00     0.089 C 
BRANCH  42  43
ATOM     43  S   UNL     1       1.407   1.862   0.037  1.00  0.00    -0.158 SA
BRANCH  43  44
ATOM     44  C   UNL     1       2.194   1.068  -1.423  1.00  0.00     0.096 CG0
ATOM     45  G   UNL     1       3.665   0.593  -1.242  1.00  0.00     0.000 G0
ENDBRANCH  43  44
ENDBRANCH  42  43
ENDBRANCH  36  42
ENDBRANCH  33  34
ENDBRANCH   5  33
TORSDOF 0
