REMARK SMILES N#C[C@]12CCOCNC[C@]3(CC3)c3cnc4[nH]cc(c4n3)C(=O)N[C@H](C3CC3)C(=O)N(C1)C2
REMARK SMILES IDX 13 1 14 2 15 3 16 4 17 5 18 6 19 7 20 8 21 9 22 11 24 12
REMARK SMILES IDX 23 13 25 15 29 16 30 17 31 18 1 19 2 20 3 21 32 22 33 23
REMARK SMILES IDX 4 24 26 26 27 27 28 28 10 29 12 30 11 31 9 32 8 33 7 35 6 36
REMARK SMILES IDX 5 37
REMARK H PARENT 17 10 24 14 8 34
REMARK Flexibility Score:  115.900
ROOT
ATOM      1  C   UNL     1       3.111   1.290   0.428  1.00  0.00     0.067 A 
ATOM      2  C   UNL     1       4.150   2.168   0.078  1.00  0.00     0.138 A 
ATOM      3  N   UNL     1       4.002   3.378  -0.518  1.00  0.00    -0.235 NA
ATOM      4  C   UNL     1       2.700   3.644  -0.731  1.00  0.00     0.156 A 
ATOM      5  N   UNL     1       2.204   4.780  -1.302  1.00  0.00    -0.344 N 
ATOM      6  C   UNL     1       0.836   4.709  -1.347  1.00  0.00     0.100 A 
ATOM      7  C   UNL     1       0.433   3.496  -0.800  1.00  0.00     0.085 A 
ATOM      8  C   UNL     1       1.626   2.822  -0.410  1.00  0.00     0.120 A 
ATOM      9  N   UNL     1       1.806   1.604   0.179  1.00  0.00    -0.246 NA
ATOM     10  H   UNL     1       2.777   5.545  -1.631  1.00  0.00     0.168 HD
ENDROOT
BRANCH   7  11
ATOM     11  C   UNL     1      -0.955   3.066  -0.682  1.00  0.00     0.255 C 
ATOM     12  N   UNL     1      -1.117   1.817  -0.137  1.00  0.00    -0.340 N 
ATOM     13  O   UNL     1      -1.892   3.776  -1.030  1.00  0.00    -0.269 OA
ATOM     14  H   UNL     1      -0.278   1.302   0.114  1.00  0.00     0.164 HD
BRANCH  12  15
ATOM     15  C   UNL     1      -2.410   1.150  -0.085  1.00  0.00     0.175 C 
BRANCH  15  16
ATOM     16  C   UNL     1      -2.513   0.238  -1.335  1.00  0.00     0.245 C 
ATOM     17  O   UNL     1      -2.181   0.664  -2.450  1.00  0.00    -0.272 OA
BRANCH  16  18
ATOM     18  N   UNL     1      -2.959  -1.049  -1.247  1.00  0.00    -0.338 N 
ATOM     19  N   UNL     1      -4.383  -5.154  -1.353  1.00  0.00    -0.198 NA
ATOM     20  C   UNL     1      -3.667  -4.243  -1.312  1.00  0.00     0.073 C 
ATOM     21  C   UNL     1      -2.778  -3.096  -1.249  1.00  0.00     0.095 C 
ATOM     22  C   UNL     1      -3.080  -2.026  -2.330  1.00  0.00     0.143 C 
ATOM     23  C   UNL     1      -3.251  -2.025  -0.218  1.00  0.00     0.143 C 
BRANCH  21  24
ATOM     24  C   UNL     1      -1.311  -3.562  -1.115  1.00  0.00     0.054 CG0
ATOM     25  G   UNL     1      -0.295  -2.421  -1.140  1.00  0.00     0.000 G0
ENDBRANCH  21  24
ENDBRANCH  16  18
ENDBRANCH  15  16
BRANCH  15  26
ATOM     26  C   UNL     1      -2.516   0.523   1.278  1.00  0.00     0.021 C 
ATOM     27  C   UNL     1      -3.849   0.365   1.972  1.00  0.00     0.006 C 
ATOM     28  C   UNL     1      -2.873   1.394   2.463  1.00  0.00     0.006 C 
ENDBRANCH  15  26
ENDBRANCH  12  15
ENDBRANCH   7  11
BRANCH   1  29
ATOM     29  C   UNL     1       3.425  -0.043   1.117  1.00  0.00     0.027 C 
ATOM     30  C   UNL     1       2.583  -0.435   2.334  1.00  0.00     0.016 C 
ATOM     31  C   UNL     1       3.985   0.035   2.539  1.00  0.00     0.016 C 
BRANCH  29  32
ATOM     32  C   UNL     1       3.997  -1.125   0.202  1.00  0.00     0.096 C 
BRANCH  32  33
ATOM     33  N   UNL     1       3.103  -2.245  -0.070  1.00  0.00    -0.294 NA
ATOM     34  H   UNL     1       2.758  -2.658   0.791  1.00  0.00     0.124 HD
BRANCH  33  35
ATOM     35  C   UNL     1       1.966  -1.876  -0.881  1.00  0.00     0.244 C 
BRANCH  35  36
ATOM     36  O   UNL     1       0.996  -2.916  -0.794  1.00  0.00    -0.366 OA
BRANCH  36  37
ATOM     37  C   UNL     1      -0.295  -2.421  -1.140  1.00  0.00     0.164 CG0
ATOM     38  G   UNL     1      -1.311  -3.562  -1.115  1.00  0.00     0.000 G0
ENDBRANCH  36  37
ENDBRANCH  35  36
ENDBRANCH  33  35
ENDBRANCH  32  33
ENDBRANCH  29  32
ENDBRANCH   1  29
TORSDOF 1
