REMARK SMILES Fc1cc2cc(F)c1CN1CCO[C@H](CCCC3(CCNCC3)n3cc(cn3)-c3cnc4cccc-2c4n3)C1
REMARK SMILES IDX 29 1 30 2 31 3 32 4 33 5 34 6 35 7 36 8 37 9 38 10 4 11 2 12
REMARK SMILES IDX 3 13 8 14 6 15 5 16 1 17 7 18 9 19 10 20 11 21 39 22 12 23
REMARK SMILES IDX 14 24 13 25 15 26 26 28 25 29 27 30 24 31 28 32 18 33 19 34
REMARK SMILES IDX 23 35 20 36 22 37 21 38 17 40 16 41
REMARK H PARENT 21 39
REMARK Flexibility Score:   65.900
ROOT
ATOM      1  C   UNL     1       0.152   3.559   0.300  1.00  0.00     0.092 A 
ATOM      2  C   UNL     1       0.153   4.944   0.299  1.00  0.00     0.140 A 
ATOM      3  N   UNL     1       1.282   5.676   0.167  1.00  0.00    -0.252 NA
ATOM      4  C   UNL     1       2.431   4.988   0.051  1.00  0.00     0.089 A 
ATOM      5  C   UNL     1       3.613   5.705  -0.070  1.00  0.00     0.030 A 
ATOM      6  C   UNL     1       4.844   5.066  -0.178  1.00  0.00     0.003 A 
ATOM      7  C   UNL     1       4.894   3.680  -0.159  1.00  0.00     0.011 A 
ATOM      8  C   UNL     1       3.712   2.925  -0.041  1.00  0.00     0.010 A 
ATOM      9  C   UNL     1       2.461   3.568   0.056  1.00  0.00     0.097 A 
ATOM     10  N   UNL     1       1.303   2.861   0.165  1.00  0.00    -0.244 NA
ENDROOT
BRANCH   8  11
ATOM     11  C   UNL     1       3.812   1.460  -0.002  1.00  0.00    -0.010 A 
ATOM     12  C   UNL     1       3.672  -0.691  -1.103  1.00  0.00     0.131 A 
ATOM     13  C   UNL     1       3.637   0.700  -1.165  1.00  0.00     0.048 A 
ATOM     14  C   UNL     1       3.876  -1.367   0.102  1.00  0.00     0.038 A 
ATOM     15  C   UNL     1       4.091  -0.601   1.247  1.00  0.00     0.131 A 
ATOM     16  C   UNL     1       4.062   0.792   1.205  1.00  0.00     0.048 A 
ATOM     17  F   UNL     1       3.463  -1.386  -2.231  1.00  0.00    -0.207 F 
ATOM     18  F   UNL     1       4.314  -1.202   2.424  1.00  0.00    -0.207 F 
BRANCH  14  19
ATOM     19  C   UNL     1       3.760  -2.867   0.176  1.00  0.00     0.126 C 
BRANCH  19  20
ATOM     20  N   UNL     1       2.477  -3.314   0.748  1.00  0.00    -0.294 NA
ATOM     21  C   UNL     1       2.401  -4.783   0.870  1.00  0.00     0.113 C 
ATOM     22  C   UNL     1       1.319  -2.794  -0.011  1.00  0.00     0.117 C 
ATOM     23  C   UNL     1       1.561  -5.444  -0.235  1.00  0.00     0.176 C 
ATOM     24  C   UNL     1       0.042  -3.630   0.212  1.00  0.00     0.132 C 
ATOM     25  O   UNL     1       0.207  -4.974  -0.285  1.00  0.00    -0.376 OA
BRANCH  24  26
ATOM     26  C   UNL     1      -1.159  -3.021  -0.527  1.00  0.00     0.033 CG0
ATOM     27  G   UNL     1      -1.705  -1.746   0.132  1.00  0.00     0.000 G0
ENDBRANCH  24  26
ENDBRANCH  19  20
ENDBRANCH  14  19
ENDBRANCH   8  11
BRANCH   1  28
ATOM     28  C   UNL     1      -1.075   2.811   0.472  1.00  0.00     0.040 A 
ATOM     29  C   UNL     1      -1.386   1.615  -0.145  1.00  0.00     0.119 A 
ATOM     30  C   UNL     1      -2.224   3.115   1.225  1.00  0.00     0.145 A 
ATOM     31  N   UNL     1      -2.650   1.266   0.268  1.00  0.00    -0.266 N 
ATOM     32  N   UNL     1      -3.186   2.205   1.085  1.00  0.00    -0.180 NA
BRANCH  31  33
ATOM     33  C   UNL     1      -3.513   0.162  -0.220  1.00  0.00     0.065 C 
ATOM     34  C   UNL     1      -4.376   0.735  -1.389  1.00  0.00     0.046 C 
ATOM     35  C   UNL     1      -4.454  -0.346   0.921  1.00  0.00     0.046 C 
ATOM     36  C   UNL     1      -5.775   1.129  -0.928  1.00  0.00     0.083 C 
ATOM     37  C   UNL     1      -5.739  -0.956   0.369  1.00  0.00     0.083 C 
ATOM     38  N   UNL     1      -6.524  -0.034  -0.451  1.00  0.00    -0.317 NA
ATOM     39  H   UNL     1      -7.336   0.293   0.074  1.00  0.00     0.122 HD
BRANCH  33  40
ATOM     40  C   UNL     1      -2.695  -1.039  -0.807  1.00  0.00     0.031 C 
BRANCH  40  41
ATOM     41  C   UNL     1      -1.705  -1.746   0.132  1.00  0.00     0.005 CG0
ATOM     42  G   UNL     1      -1.159  -3.021  -0.527  1.00  0.00     0.000 G0
ENDBRANCH  40  41
ENDBRANCH  33  40
ENDBRANCH  31  33
ENDBRANCH   1  28
TORSDOF 0
