REMARK SMILES CC(C)(C)[C@H]1NC(=O)c2c[nH]c3ncc(nc23)[C@]2(CCCNCC[C@@]3(C#N)CN(C3)C1=O)CC2
REMARK SMILES IDX 9 1 10 2 11 3 12 4 13 5 14 6 15 7 16 8 17 9 7 11 6 12 8 13
REMARK SMILES IDX 5 15 2 16 1 17 3 18 4 19 31 20 32 21 29 22 28 23 30 24 25 25
REMARK SMILES IDX 26 26 27 27 24 28 18 30 34 31 33 32 19 33 20 34 21 35 22 36
REMARK SMILES IDX 23 38
REMARK H PARENT 11 10 6 14 22 37
REMARK Flexibility Score:  115.900
ROOT
ATOM      1  C   UNL     1       0.087  -2.429   0.174  1.00  0.00     0.085 A 
ATOM      2  C   UNL     1       0.549  -3.253   1.198  1.00  0.00     0.100 A 
ATOM      3  N   UNL     1      -0.527  -3.655   1.950  1.00  0.00    -0.344 N 
ATOM      4  C   UNL     1      -1.664  -3.082   1.461  1.00  0.00     0.156 A 
ATOM      5  N   UNL     1      -2.891  -3.201   1.999  1.00  0.00    -0.235 NA
ATOM      6  C   UNL     1      -3.794  -2.473   1.289  1.00  0.00     0.138 A 
ATOM      7  C   UNL     1      -3.522  -1.716   0.139  1.00  0.00     0.066 A 
ATOM      8  N   UNL     1      -2.260  -1.649  -0.361  1.00  0.00    -0.246 NA
ATOM      9  C   UNL     1      -1.324  -2.343   0.334  1.00  0.00     0.120 A 
ATOM     10  H   UNL     1      -0.508  -4.260   2.760  1.00  0.00     0.168 HD
ENDROOT
BRANCH   1  11
ATOM     11  C   UNL     1       0.896  -1.774  -0.841  1.00  0.00     0.255 C 
ATOM     12  N   UNL     1       2.134  -1.373  -0.386  1.00  0.00    -0.340 N 
ATOM     13  O   UNL     1       0.509  -1.556  -1.982  1.00  0.00    -0.269 OA
ATOM     14  H   UNL     1       2.358  -1.505   0.589  1.00  0.00     0.164 HD
BRANCH  12  15
ATOM     15  C   UNL     1       3.118  -0.752  -1.271  1.00  0.00     0.177 C 
BRANCH  15  16
ATOM     16  C   UNL     1       4.580  -1.006  -0.756  1.00  0.00    -0.009 C 
ATOM     17  C   UNL     1       5.622  -0.545  -1.798  1.00  0.00     0.013 C 
ATOM     18  C   UNL     1       4.866  -0.275   0.569  1.00  0.00     0.013 C 
ATOM     19  C   UNL     1       4.802  -2.522  -0.537  1.00  0.00     0.013 C 
ENDBRANCH  15  16
BRANCH  15  20
ATOM     20  C   UNL     1       2.850   0.751  -1.580  1.00  0.00     0.245 C 
ATOM     21  O   UNL     1       3.358   1.280  -2.576  1.00  0.00    -0.272 OA
BRANCH  20  22
ATOM     22  N   UNL     1       2.190   1.532  -0.674  1.00  0.00    -0.338 N 
ATOM     23  C   UNL     1       2.021   2.975  -0.716  1.00  0.00     0.143 C 
ATOM     24  C   UNL     1       1.453   1.334   0.550  1.00  0.00     0.143 C 
ATOM     25  C   UNL     1       1.171   2.859   0.570  1.00  0.00     0.094 C 
ATOM     26  C   UNL     1       1.761   3.543   1.706  1.00  0.00     0.073 C 
ATOM     27  N   UNL     1       2.231   4.066   2.629  1.00  0.00    -0.198 NA
BRANCH  25  28
ATOM     28  C   UNL     1      -0.291   3.273   0.319  1.00  0.00     0.041 CG0
ATOM     29  G   UNL     1      -1.213   2.931   1.499  1.00  0.00     0.000 G0
ENDBRANCH  25  28
ENDBRANCH  20  22
ENDBRANCH  15  20
ENDBRANCH  12  15
ENDBRANCH   1  11
BRANCH   7  30
ATOM     30  C   UNL     1      -4.592  -0.868  -0.557  1.00  0.00     0.014 C 
ATOM     31  C   UNL     1      -6.069  -1.225  -0.471  1.00  0.00     0.014 C 
ATOM     32  C   UNL     1      -5.312  -1.530  -1.726  1.00  0.00     0.014 C 
BRANCH  30  33
ATOM     33  C   UNL     1      -4.224   0.599  -0.763  1.00  0.00     0.015 C 
BRANCH  33  34
ATOM     34  C   UNL     1      -3.691   1.283   0.501  1.00  0.00     0.016 C 
BRANCH  34  35
ATOM     35  C   UNL     1      -3.320   2.741   0.213  1.00  0.00     0.081 C 
BRANCH  35  36
ATOM     36  N   UNL     1      -2.591   3.389   1.306  1.00  0.00    -0.317 NA
ATOM     37  H   UNL     1      -3.112   3.261   2.175  1.00  0.00     0.122 HD
BRANCH  36  38
ATOM     38  C   UNL     1      -1.213   2.931   1.499  1.00  0.00     0.082 CG0
ATOM     39  G   UNL     1      -0.291   3.273   0.319  1.00  0.00     0.000 G0
ENDBRANCH  36  38
ENDBRANCH  35  36
ENDBRANCH  34  35
ENDBRANCH  33  34
ENDBRANCH  30  33
ENDBRANCH   7  30
TORSDOF 1
