REMARK SMILES N#C[C@H]1CCN(C(=O)[C@@H]2NC(=O)c3c[nH]c4ncc(nc34)[C@@H]3C[C@@H]3CNCC23CC3)C1
REMARK SMILES IDX 13 1 14 2 15 3 16 4 17 5 18 6 19 7 20 8 21 9 11 11 10 12
REMARK SMILES IDX 12 13 9 15 7 16 8 17 6 18 1 19 2 20 3 21 4 22 31 23 5 24
REMARK SMILES IDX 28 25 29 26 30 27 22 29 23 30 24 31 25 32 26 33 27 35
REMARK H PARENT 15 10 10 14 26 34
REMARK Flexibility Score:  106.900
ROOT
ATOM      1  C   UNL     1      -0.560   2.900  -0.489  1.00  0.00     0.085 A 
ATOM      2  C   UNL     1      -0.484   4.281  -0.378  1.00  0.00     0.100 A 
ATOM      3  N   UNL     1      -1.714   4.755   0.034  1.00  0.00    -0.344 N 
ATOM      4  C   UNL     1      -2.584   3.711   0.185  1.00  0.00     0.156 A 
ATOM      5  N   UNL     1      -3.870   3.764   0.589  1.00  0.00    -0.235 NA
ATOM      6  C   UNL     1      -4.413   2.509   0.624  1.00  0.00     0.137 A 
ATOM      7  C   UNL     1      -3.760   1.312   0.285  1.00  0.00     0.063 A 
ATOM      8  N   UNL     1      -2.478   1.338  -0.124  1.00  0.00    -0.247 NA
ATOM      9  C   UNL     1      -1.896   2.561  -0.155  1.00  0.00     0.120 A 
ATOM     10  H   UNL     1      -1.952   5.721   0.213  1.00  0.00     0.168 HD
ENDROOT
BRANCH   1  11
ATOM     11  C   UNL     1       0.501   1.968  -0.860  1.00  0.00     0.255 C 
ATOM     12  N   UNL     1       0.135   0.659  -0.698  1.00  0.00    -0.340 N 
ATOM     13  O   UNL     1       1.601   2.323  -1.266  1.00  0.00    -0.269 OA
ATOM     14  H   UNL     1      -0.763   0.495  -0.253  1.00  0.00     0.164 HD
BRANCH  12  15
ATOM     15  C   UNL     1       0.962  -0.501  -0.932  1.00  0.00     0.179 C 
BRANCH  15  16
ATOM     16  C   UNL     1       1.629  -0.883   0.417  1.00  0.00     0.245 C 
ATOM     17  O   UNL     1       0.956  -1.284   1.373  1.00  0.00    -0.272 OA
BRANCH  16  18
ATOM     18  N   UNL     1       2.998  -0.746   0.534  1.00  0.00    -0.340 N 
ATOM     19  N   UNL     1       5.646   2.291   1.362  1.00  0.00    -0.198 NA
ATOM     20  C   UNL     1       5.464   1.251   0.882  1.00  0.00     0.067 C 
ATOM     21  C   UNL     1       5.268  -0.081   0.287  1.00  0.00     0.114 C 
ATOM     22  C   UNL     1       5.154  -1.161   1.367  1.00  0.00     0.042 C 
ATOM     23  C   UNL     1       3.926  -0.181  -0.439  1.00  0.00     0.138 C 
ATOM     24  C   UNL     1       3.683  -1.122   1.757  1.00  0.00     0.121 C 
ENDBRANCH  16  18
ENDBRANCH  15  16
BRANCH  15  25
ATOM     25  C   UNL     1       0.119  -1.666  -1.505  1.00  0.00     0.012 CG0
ATOM     26  C   UNL     1       0.406  -2.048  -2.953  1.00  0.00     0.012 C 
ATOM     27  C   UNL     1       0.855  -2.954  -1.849  1.00  0.00     0.012 C 
ATOM     28  G   UNL     1      -1.345  -1.796  -1.065  1.00  0.00     0.000 G0
ENDBRANCH  15  25
ENDBRANCH  12  15
ENDBRANCH   1  11
BRANCH   7  29
ATOM     29  C   UNL     1      -4.459  -0.030   0.314  1.00  0.00     0.044 C 
ATOM     30  C   UNL     1      -4.758  -0.695   1.633  1.00  0.00     0.016 C 
ATOM     31  C   UNL     1      -3.760  -1.339   0.700  1.00  0.00     0.013 C 
BRANCH  31  32
ATOM     32  C   UNL     1      -2.339  -1.469   1.170  1.00  0.00     0.085 C 
BRANCH  32  33
ATOM     33  N   UNL     1      -1.494  -2.291   0.298  1.00  0.00    -0.316 NA
ATOM     34  H   UNL     1      -0.572  -2.324   0.750  1.00  0.00     0.122 HD
BRANCH  33  35
ATOM     35  C   UNL     1      -1.345  -1.796  -1.065  1.00  0.00     0.090 CG0
ATOM     36  G   UNL     1       0.119  -1.666  -1.505  1.00  0.00     0.000 G0
ENDBRANCH  33  35
ENDBRANCH  32  33
ENDBRANCH  31  32
ENDBRANCH   7  29
TORSDOF 2
