REMARK SMILES N#C[C@@H]1CCN(C(=O)[C@@H]2NC(=O)c3c[nH]c4ncc(nc34)[C@@H]3C[C@@H]3CSCC23CC3)C1
REMARK SMILES IDX 13 1 14 2 15 3 16 4 17 5 18 6 19 7 20 8 21 9 11 11 10 12
REMARK SMILES IDX 12 13 9 15 7 16 8 17 6 18 1 19 2 20 3 21 4 22 31 23 5 24
REMARK SMILES IDX 28 25 29 26 30 27 22 29 23 30 24 31 25 32 26 33 27 34
REMARK H PARENT 15 10 10 14
REMARK Flexibility Score:  106.900
ROOT
ATOM      1  C   UNL     1      -0.878   2.537  -1.308  1.00  0.00     0.085 A 
ATOM      2  C   UNL     1      -0.916   3.765  -1.955  1.00  0.00     0.100 A 
ATOM      3  N   UNL     1      -2.206   4.246  -1.907  1.00  0.00    -0.344 N 
ATOM      4  C   UNL     1      -3.004   3.353  -1.247  1.00  0.00     0.156 A 
ATOM      5  N   UNL     1      -4.327   3.463  -1.027  1.00  0.00    -0.235 NA
ATOM      6  C   UNL     1      -4.789   2.377  -0.341  1.00  0.00     0.137 A 
ATOM      7  C   UNL     1      -4.023   1.283   0.097  1.00  0.00     0.063 A 
ATOM      8  N   UNL     1      -2.693   1.242  -0.151  1.00  0.00    -0.247 NA
ATOM      9  C   UNL     1      -2.200   2.298  -0.847  1.00  0.00     0.120 A 
ATOM     10  H   UNL     1      -2.538   5.113  -2.304  1.00  0.00     0.168 HD
ENDROOT
BRANCH   1  11
ATOM     11  C   UNL     1       0.281   1.664  -1.167  1.00  0.00     0.255 C 
ATOM     12  N   UNL     1       0.005   0.484  -0.526  1.00  0.00    -0.340 N 
ATOM     13  O   UNL     1       1.391   1.950  -1.604  1.00  0.00    -0.269 OA
ATOM     14  H   UNL     1      -0.917   0.382  -0.112  1.00  0.00     0.164 HD
BRANCH  12  15
ATOM     15  C   UNL     1       0.980  -0.567  -0.319  1.00  0.00     0.178 C 
BRANCH  15  16
ATOM     16  C   UNL     1       1.768  -0.285   0.988  1.00  0.00     0.245 C 
ATOM     17  O   UNL     1       1.188  -0.157   2.072  1.00  0.00    -0.272 OA
BRANCH  16  18
ATOM     18  N   UNL     1       3.141  -0.169   0.911  1.00  0.00    -0.340 N 
ATOM     19  N   UNL     1       7.286  -0.706  -1.246  1.00  0.00    -0.198 NA
ATOM     20  C   UNL     1       6.428  -0.254  -0.609  1.00  0.00     0.067 C 
ATOM     21  C   UNL     1       5.342   0.307   0.193  1.00  0.00     0.114 C 
ATOM     22  C   UNL     1       5.372  -0.168   1.646  1.00  0.00     0.042 C 
ATOM     23  C   UNL     1       3.972  -0.166  -0.287  1.00  0.00     0.138 C 
ATOM     24  C   UNL     1       3.939   0.058   2.102  1.00  0.00     0.121 C 
ENDBRANCH  16  18
ENDBRANCH  15  16
BRANCH  15  25
ATOM     25  C   UNL     1       0.250  -1.926  -0.308  1.00  0.00     0.009 CG0
ATOM     26  C   UNL     1      -0.026  -2.549  -1.678  1.00  0.00     0.011 C 
ATOM     27  C   UNL     1       1.045  -3.127  -0.809  1.00  0.00     0.011 C 
ATOM     28  G   UNL     1      -0.650  -2.175   0.903  1.00  0.00     0.000 G0
ENDBRANCH  15  25
ENDBRANCH  12  15
ENDBRANCH   1  11
BRANCH   7  29
ATOM     29  C   UNL     1      -4.652   0.145   0.888  1.00  0.00     0.044 C 
ATOM     30  C   UNL     1      -3.845  -0.474   2.010  1.00  0.00     0.015 C 
ATOM     31  C   UNL     1      -4.209  -1.313   0.812  1.00  0.00     0.009 C 
BRANCH  31  32
ATOM     32  C   UNL     1      -3.197  -1.833  -0.163  1.00  0.00     0.073 C 
BRANCH  32  33
ATOM     33  S   UNL     1      -2.175  -3.117   0.622  1.00  0.00    -0.161 SA
BRANCH  33  34
ATOM     34  C   UNL     1      -0.650  -2.175   0.903  1.00  0.00     0.079 CG0
ATOM     35  G   UNL     1       0.250  -1.926  -0.308  1.00  0.00     0.000 G0
ENDBRANCH  33  34
ENDBRANCH  32  33
ENDBRANCH  31  32
ENDBRANCH   7  29
TORSDOF 2
