REMARK SMILES N#C[C@]12CCCNCC[C@]3(CC3)c3cnc4[nH]cc(c4n3)C(=O)N[C@H](C3CC3)C(=O)N(C1)C2
REMARK SMILES IDX 13 1 14 2 15 3 16 4 17 5 18 6 19 7 20 8 21 9 22 11 24 12
REMARK SMILES IDX 23 13 25 15 29 16 30 17 31 18 1 19 2 20 3 21 32 22 33 23
REMARK SMILES IDX 4 24 26 26 27 27 28 28 10 29 12 30 11 31 9 32 8 33 7 34 6 36
REMARK SMILES IDX 5 37
REMARK H PARENT 17 10 24 14 7 35
REMARK Flexibility Score:  115.900
ROOT
ATOM      1  C   UNL     1      -2.051  -1.937   0.050  1.00  0.00     0.066 A 
ATOM      2  C   UNL     1      -2.893  -3.024  -0.245  1.00  0.00     0.138 A 
ATOM      3  N   UNL     1      -2.589  -4.069  -1.052  1.00  0.00    -0.235 NA
ATOM      4  C   UNL     1      -1.344  -3.935  -1.544  1.00  0.00     0.156 A 
ATOM      5  N   UNL     1      -0.731  -4.812  -2.390  1.00  0.00    -0.344 N 
ATOM      6  C   UNL     1       0.533  -4.365  -2.669  1.00  0.00     0.100 A 
ATOM      7  C   UNL     1       0.746  -3.170  -1.990  1.00  0.00     0.085 A 
ATOM      8  C   UNL     1      -0.458  -2.894  -1.283  1.00  0.00     0.120 A 
ATOM      9  N   UNL     1      -0.793  -1.852  -0.469  1.00  0.00    -0.246 NA
ATOM     10  H   UNL     1      -1.161  -5.657  -2.738  1.00  0.00     0.168 HD
ENDROOT
BRANCH   7  11
ATOM     11  C   UNL     1       1.994  -2.424  -2.027  1.00  0.00     0.255 C 
ATOM     12  N   UNL     1       2.013  -1.285  -1.259  1.00  0.00    -0.340 N 
ATOM     13  O   UNL     1       2.960  -2.817  -2.673  1.00  0.00    -0.269 OA
ATOM     14  H   UNL     1       1.164  -1.019  -0.769  1.00  0.00     0.164 HD
BRANCH  12  15
ATOM     15  C   UNL     1       3.215  -0.486  -1.108  1.00  0.00     0.175 C 
BRANCH  15  16
ATOM     16  C   UNL     1       2.940   0.975  -1.525  1.00  0.00     0.245 C 
ATOM     17  O   UNL     1       3.248   1.389  -2.647  1.00  0.00    -0.272 OA
BRANCH  16  18
ATOM     18  N   UNL     1       2.288   1.796  -0.648  1.00  0.00    -0.338 N 
ATOM     19  N   UNL     1       2.548   4.625   2.386  1.00  0.00    -0.198 NA
ATOM     20  C   UNL     1       2.008   3.975   1.591  1.00  0.00     0.073 C 
ATOM     21  C   UNL     1       1.324   3.156   0.595  1.00  0.00     0.092 C 
ATOM     22  C   UNL     1       2.019   3.216  -0.787  1.00  0.00     0.143 C 
ATOM     23  C   UNL     1       1.747   1.664   0.684  1.00  0.00     0.143 C 
BRANCH  21  24
ATOM     24  C   UNL     1      -0.184   3.455   0.651  1.00  0.00     0.027 CG0
ATOM     25  G   UNL     1      -1.030   2.733  -0.406  1.00  0.00     0.000 G0
ENDBRANCH  21  24
ENDBRANCH  16  18
ENDBRANCH  15  16
BRANCH  15  26
ATOM     26  C   UNL     1       3.834  -0.645   0.266  1.00  0.00     0.021 C 
ATOM     27  C   UNL     1       3.152  -1.318   1.441  1.00  0.00     0.006 C 
ATOM     28  C   UNL     1       4.279  -2.013   0.736  1.00  0.00     0.006 C 
ENDBRANCH  15  26
ENDBRANCH  12  15
ENDBRANCH   7  11
BRANCH   1  29
ATOM     29  C   UNL     1      -2.562  -0.798   0.942  1.00  0.00     0.015 C 
ATOM     30  C   UNL     1      -1.645  -0.300   2.051  1.00  0.00     0.014 C 
ATOM     31  C   UNL     1      -2.835  -1.141   2.403  1.00  0.00     0.014 C 
BRANCH  29  32
ATOM     32  C   UNL     1      -3.515   0.139   0.199  1.00  0.00     0.029 C 
BRANCH  32  33
ATOM     33  C   UNL     1      -3.998   1.421   0.891  1.00  0.00     0.082 C 
BRANCH  33  34
ATOM     34  N   UNL     1      -3.014   2.498   1.035  1.00  0.00    -0.317 NA
ATOM     35  H   UNL     1      -3.455   3.259   1.556  1.00  0.00     0.122 HD
BRANCH  34  36
ATOM     36  C   UNL     1      -2.527   3.025  -0.240  1.00  0.00     0.081 C 
BRANCH  36  37
ATOM     37  C   UNL     1      -1.030   2.733  -0.406  1.00  0.00     0.017 CG0
ATOM     38  G   UNL     1      -0.184   3.455   0.651  1.00  0.00     0.000 G0
ENDBRANCH  36  37
ENDBRANCH  34  36
ENDBRANCH  33  34
ENDBRANCH  32  33
ENDBRANCH  29  32
ENDBRANCH   1  29
TORSDOF 1
