REMARK SMILES Fc1cc2cc(F)c1CN1CCOC[C@H]1CSC[C@H]1CNCC[C@H]1n1cc(cn1)-c1cnc3cccc-2c3n1
REMARK SMILES IDX 1 1 2 2 3 3 4 4 5 5 6 6 7 7 8 8 9 9 10 10 11 11 15 12 12 13
REMARK SMILES IDX 14 14 13 15 16 16 17 17 18 18 37 20 36 21 38 22 35 23 39 24
REMARK SMILES IDX 33 25 34 26 30 27 32 28 31 29 27 30 26 31 28 32 25 33 29 34
REMARK SMILES IDX 24 35 23 36 19 37 22 38 20 39 21 40
REMARK H PARENT 21 41
REMARK Flexibility Score:   78.900
ROOT
ATOM      1  F   UNL     1      -3.547   0.244   2.553  1.00  0.00    -0.207 F 
ATOM      2  C   UNL     1      -3.274  -0.288   1.352  1.00  0.00     0.131 A 
ATOM      3  C   UNL     1      -3.007  -1.655   1.277  1.00  0.00     0.048 A 
ATOM      4  C   UNL     1      -2.755  -2.266   0.041  1.00  0.00    -0.010 A 
ATOM      5  C   UNL     1      -2.772  -1.465  -1.109  1.00  0.00     0.048 A 
ATOM      6  C   UNL     1      -3.045  -0.100  -1.014  1.00  0.00     0.131 A 
ATOM      7  F   UNL     1      -3.078   0.622  -2.145  1.00  0.00    -0.207 F 
ATOM      8  C   UNL     1      -3.305   0.514   0.211  1.00  0.00     0.038 A 
ENDROOT
BRANCH   8   9
ATOM      9  C   UNL     1      -3.623   1.982   0.307  1.00  0.00     0.126 C 
BRANCH   9  10
ATOM     10  N   UNL     1      -2.492   2.803   0.793  1.00  0.00    -0.291 NA
ATOM     11  C   UNL     1      -2.995   4.068   1.360  1.00  0.00     0.113 C 
ATOM     12  C   UNL     1      -1.519   3.096  -0.303  1.00  0.00     0.092 C 
ATOM     13  C   UNL     1      -3.630   5.010   0.319  1.00  0.00     0.175 C 
ATOM     14  C   UNL     1      -1.631   4.545  -0.860  1.00  0.00     0.180 C 
ATOM     15  O   UNL     1      -2.993   4.963  -0.965  1.00  0.00    -0.378 OA
BRANCH  12  16
ATOM     16  C   UNL     1      -0.051   2.875   0.142  1.00  0.00     0.091 C 
BRANCH  16  17
ATOM     17  S   UNL     1       0.322   1.161   0.652  1.00  0.00    -0.160 SA
BRANCH  17  18
ATOM     18  C   UNL     1       2.142   1.259   0.827  1.00  0.00     0.076 CG0
ATOM     19  G   UNL     1       2.869   1.174  -0.537  1.00  0.00     0.000 G0
ENDBRANCH  17  18
ENDBRANCH  16  17
ENDBRANCH  12  16
ENDBRANCH   9  10
ENDBRANCH   8   9
BRANCH   4  20
ATOM     20  C   UNL     1      -2.516  -3.715  -0.048  1.00  0.00     0.010 A 
ATOM     21  C   UNL     1      -3.625  -4.581  -0.034  1.00  0.00     0.011 A 
ATOM     22  C   UNL     1      -1.213  -4.242  -0.130  1.00  0.00     0.097 A 
ATOM     23  C   UNL     1      -3.450  -5.957  -0.097  1.00  0.00     0.003 A 
ATOM     24  N   UNL     1      -0.128  -3.432  -0.148  1.00  0.00    -0.244 NA
ATOM     25  C   UNL     1      -1.047  -5.651  -0.180  1.00  0.00     0.089 A 
ATOM     26  C   UNL     1      -2.162  -6.477  -0.168  1.00  0.00     0.030 A 
ATOM     27  C   UNL     1       1.096  -4.009  -0.185  1.00  0.00     0.092 A 
ATOM     28  N   UNL     1       0.171  -6.224  -0.234  1.00  0.00    -0.252 NA
ATOM     29  C   UNL     1       1.232  -5.385  -0.227  1.00  0.00     0.140 A 
BRANCH  27  30
ATOM     30  C   UNL     1       2.238  -3.123  -0.149  1.00  0.00     0.040 A 
ATOM     31  C   UNL     1       2.226  -1.810  -0.574  1.00  0.00     0.119 A 
ATOM     32  C   UNL     1       3.560  -3.322   0.296  1.00  0.00     0.145 A 
ATOM     33  N   UNL     1       3.464  -1.295  -0.309  1.00  0.00    -0.269 N 
ATOM     34  N   UNL     1       4.313  -2.227   0.175  1.00  0.00    -0.181 NA
BRANCH  33  35
ATOM     35  C   UNL     1       3.954   0.057  -0.588  1.00  0.00     0.114 C 
ATOM     36  C   UNL     1       5.165   0.447   0.286  1.00  0.00     0.043 C 
ATOM     37  C   UNL     1       2.869   1.174  -0.537  1.00  0.00     0.037 CG0
ATOM     38  C   UNL     1       5.710   1.812  -0.113  1.00  0.00     0.083 C 
ATOM     39  C   UNL     1       3.538   2.514  -0.900  1.00  0.00     0.087 C 
ATOM     40  N   UNL     1       4.685   2.849  -0.058  1.00  0.00    -0.316 NA
ATOM     41  H   UNL     1       4.396   2.994   0.909  1.00  0.00     0.122 HD
ATOM     42  G   UNL     1       2.142   1.259   0.827  1.00  0.00     0.000 G0
ENDBRANCH  33  35
ENDBRANCH  27  30
ENDBRANCH   4  20
TORSDOF 0
