REMARK SMILES CC(C)(C)[C@H]1NC(=O)c2c[nH]c3ncc(nc23)[C@]2(CCCOCC[C@@]3(C#N)CN(C3)C1=O)CC2
REMARK SMILES IDX 9 1 10 2 11 3 12 4 13 5 14 6 15 7 16 8 17 9 7 11 6 12 8 13
REMARK SMILES IDX 5 15 2 16 1 17 3 18 4 19 31 20 32 21 29 22 28 23 30 24 25 25
REMARK SMILES IDX 26 26 27 27 24 28 18 30 33 31 34 32 19 33 20 34 21 35 22 36
REMARK SMILES IDX 23 37
REMARK H PARENT 11 10 6 14
REMARK Flexibility Score:  115.900
ROOT
ATOM      1  C   UNL     1      -1.324   1.115  -2.819  1.00  0.00     0.085 A 
ATOM      2  C   UNL     1      -1.416   1.281  -4.197  1.00  0.00     0.100 A 
ATOM      3  N   UNL     1      -0.279   1.905  -4.643  1.00  0.00    -0.344 N 
ATOM      4  C   UNL     1       0.550   2.147  -3.586  1.00  0.00     0.156 A 
ATOM      5  N   UNL     1       1.759   2.735  -3.656  1.00  0.00    -0.235 NA
ATOM      6  C   UNL     1       2.324   2.810  -2.424  1.00  0.00     0.138 A 
ATOM      7  C   UNL     1       1.749   2.353  -1.229  1.00  0.00     0.066 A 
ATOM      8  N   UNL     1       0.518   1.766  -1.212  1.00  0.00    -0.246 NA
ATOM      9  C   UNL     1      -0.072   1.673  -2.437  1.00  0.00     0.120 A 
ATOM     10  H   UNL     1      -0.063   2.148  -5.600  1.00  0.00     0.168 HD
ENDROOT
BRANCH   1  11
ATOM     11  C   UNL     1      -2.341   0.474  -1.999  1.00  0.00     0.255 C 
ATOM     12  N   UNL     1      -2.055   0.419  -0.653  1.00  0.00    -0.340 N 
ATOM     13  O   UNL     1      -3.367   0.007  -2.480  1.00  0.00    -0.269 OA
ATOM     14  H   UNL     1      -1.180   0.826  -0.335  1.00  0.00     0.164 HD
BRANCH  12  15
ATOM     15  C   UNL     1      -2.970  -0.216   0.295  1.00  0.00     0.177 C 
BRANCH  15  16
ATOM     16  C   UNL     1      -2.894   0.429   1.719  1.00  0.00    -0.009 C 
ATOM     17  C   UNL     1      -4.007  -0.138   2.626  1.00  0.00     0.013 C 
ATOM     18  C   UNL     1      -3.125   1.954   1.607  1.00  0.00     0.013 C 
ATOM     19  C   UNL     1      -1.543   0.197   2.414  1.00  0.00     0.013 C 
ENDBRANCH  15  16
BRANCH  15  20
ATOM     20  C   UNL     1      -2.856  -1.770   0.292  1.00  0.00     0.245 C 
ATOM     21  O   UNL     1      -3.832  -2.469   0.584  1.00  0.00    -0.272 OA
BRANCH  20  22
ATOM     22  N   UNL     1      -1.639  -2.361   0.096  1.00  0.00    -0.338 N 
ATOM     23  C   UNL     1      -0.276  -1.915  -0.050  1.00  0.00     0.143 C 
ATOM     24  C   UNL     1      -1.318  -3.779   0.075  1.00  0.00     0.143 C 
ATOM     25  C   UNL     1       0.109  -3.380  -0.377  1.00  0.00     0.095 C 
ATOM     26  C   UNL     1       0.348  -3.607  -1.796  1.00  0.00     0.073 C 
ATOM     27  N   UNL     1       0.586  -3.790  -2.917  1.00  0.00    -0.198 NA
BRANCH  25  28
ATOM     28  C   UNL     1       1.228  -4.008   0.475  1.00  0.00     0.054 CG0
ATOM     29  G   UNL     1       2.534  -3.216   0.371  1.00  0.00     0.000 G0
ENDBRANCH  25  28
ENDBRANCH  20  22
ENDBRANCH  15  20
ENDBRANCH  12  15
ENDBRANCH   1  11
BRANCH   7  30
ATOM     30  C   UNL     1       2.504   2.467   0.094  1.00  0.00     0.014 C 
ATOM     31  C   UNL     1       2.929   3.848   0.571  1.00  0.00     0.014 C 
ATOM     32  C   UNL     1       1.795   3.147   1.256  1.00  0.00     0.014 C 
BRANCH  30  33
ATOM     33  C   UNL     1       3.415   1.291   0.427  1.00  0.00     0.016 C 
BRANCH  33  34
ATOM     34  C   UNL     1       2.615   0.002   0.596  1.00  0.00     0.029 C 
BRANCH  34  35
ATOM     35  C   UNL     1       3.424  -1.147   1.182  1.00  0.00     0.160 C 
BRANCH  35  36
ATOM     36  O   UNL     1       2.531  -2.238   1.411  1.00  0.00    -0.381 OA
BRANCH  36  37
ATOM     37  C   UNL     1       2.534  -3.216   0.371  1.00  0.00     0.162 CG0
ATOM     38  G   UNL     1       1.228  -4.008   0.475  1.00  0.00     0.000 G0
ENDBRANCH  36  37
ENDBRANCH  35  36
ENDBRANCH  34  35
ENDBRANCH  33  34
ENDBRANCH  30  33
ENDBRANCH   7  30
TORSDOF 1
