REMARK SMILES Fc1cc2cc(F)c1CN1CCOC[C@H]1CNC[C@H]1CNCC[C@@H]1n1cc(cn1)-c1cnc3cccc-2c3n1
REMARK SMILES IDX 1 1 2 2 3 3 4 4 5 5 6 6 7 7 8 8 9 9 10 10 11 11 15 12 12 13
REMARK SMILES IDX 14 14 13 15 16 16 17 17 18 19 37 21 36 22 38 23 35 24 39 25
REMARK SMILES IDX 33 26 34 27 30 28 32 29 31 30 27 31 26 32 28 33 25 34 29 35
REMARK SMILES IDX 24 36 23 37 19 38 22 39 20 40 21 41
REMARK H PARENT 17 18 21 42
REMARK Flexibility Score:   78.900
ROOT
ATOM      1  F   UNL     1      -2.275   0.882   2.672  1.00  0.00    -0.207 F 
ATOM      2  C   UNL     1      -2.601   0.157   1.593  1.00  0.00     0.131 A 
ATOM      3  C   UNL     1      -2.476  -1.229   1.662  1.00  0.00     0.048 A 
ATOM      4  C   UNL     1      -2.816  -2.035   0.565  1.00  0.00    -0.010 A 
ATOM      5  C   UNL     1      -3.293  -1.406  -0.591  1.00  0.00     0.048 A 
ATOM      6  C   UNL     1      -3.407  -0.015  -0.644  1.00  0.00     0.131 A 
ATOM      7  F   UNL     1      -3.900   0.538  -1.762  1.00  0.00    -0.207 F 
ATOM      8  C   UNL     1      -3.054   0.792   0.439  1.00  0.00     0.038 A 
ENDROOT
BRANCH   8   9
ATOM      9  C   UNL     1      -3.227   2.287   0.396  1.00  0.00     0.126 C 
BRANCH   9  10
ATOM     10  N   UNL     1      -2.381   2.958  -0.616  1.00  0.00    -0.290 NA
ATOM     11  C   UNL     1      -3.070   4.177  -1.116  1.00  0.00     0.113 C 
ATOM     12  C   UNL     1      -1.050   3.392  -0.099  1.00  0.00     0.096 C 
ATOM     13  C   UNL     1      -2.723   5.488  -0.378  1.00  0.00     0.175 C 
ATOM     14  C   UNL     1      -1.165   4.423   1.060  1.00  0.00     0.180 C 
ATOM     15  O   UNL     1      -2.346   5.245   0.977  1.00  0.00    -0.378 OA
BRANCH  12  16
ATOM     16  C   UNL     1      -0.040   2.260   0.232  1.00  0.00     0.102 C 
BRANCH  16  17
ATOM     17  N   UNL     1       1.312   2.804   0.457  1.00  0.00    -0.315 NA
ATOM     18  H   UNL     1       1.569   3.413  -0.317  1.00  0.00     0.122 HD
BRANCH  17  19
ATOM     19  C   UNL     1       2.330   1.771   0.670  1.00  0.00     0.088 CG0
ATOM     20  G   UNL     1       2.838   1.058  -0.605  1.00  0.00     0.000 G0
ENDBRANCH  17  19
ENDBRANCH  16  17
ENDBRANCH  12  16
ENDBRANCH   9  10
ENDBRANCH   8   9
BRANCH   4  21
ATOM     21  C   UNL     1      -2.652  -3.499   0.635  1.00  0.00     0.010 A 
ATOM     22  C   UNL     1      -3.786  -4.329   0.617  1.00  0.00     0.011 A 
ATOM     23  C   UNL     1      -1.372  -4.072   0.748  1.00  0.00     0.097 A 
ATOM     24  C   UNL     1      -3.652  -5.708   0.730  1.00  0.00     0.003 A 
ATOM     25  N   UNL     1      -0.272  -3.288   0.730  1.00  0.00    -0.244 NA
ATOM     26  C   UNL     1      -1.242  -5.477   0.881  1.00  0.00     0.089 A 
ATOM     27  C   UNL     1      -2.383  -6.267   0.867  1.00  0.00     0.030 A 
ATOM     28  C   UNL     1       0.935  -3.880   0.866  1.00  0.00     0.092 A 
ATOM     29  N   UNL     1      -0.037  -6.067   1.024  1.00  0.00    -0.252 NA
ATOM     30  C   UNL     1       1.044  -5.249   1.019  1.00  0.00     0.140 A 
BRANCH  28  31
ATOM     31  C   UNL     1       2.075  -2.996   0.829  1.00  0.00     0.040 A 
ATOM     32  C   UNL     1       2.114  -1.828   0.094  1.00  0.00     0.119 A 
ATOM     33  C   UNL     1       3.329  -3.046   1.465  1.00  0.00     0.145 A 
ATOM     34  N   UNL     1       3.327  -1.255   0.333  1.00  0.00    -0.269 N 
ATOM     35  N   UNL     1       4.096  -1.993   1.166  1.00  0.00    -0.181 NA
BRANCH  34  36
ATOM     36  C   UNL     1       3.889  -0.028  -0.232  1.00  0.00     0.114 C 
ATOM     37  C   UNL     1       4.835  -0.366  -1.401  1.00  0.00     0.043 C 
ATOM     38  C   UNL     1       2.838   1.058  -0.605  1.00  0.00     0.041 CG0
ATOM     39  C   UNL     1       4.196  -0.045  -2.742  1.00  0.00     0.083 C 
ATOM     40  C   UNL     1       3.480   2.023  -1.613  1.00  0.00     0.088 C 
ATOM     41  N   UNL     1       3.845   1.366  -2.870  1.00  0.00    -0.316 NA
ATOM     42  H   UNL     1       4.602   1.883  -3.319  1.00  0.00     0.122 HD
ATOM     43  G   UNL     1       2.330   1.771   0.670  1.00  0.00     0.000 G0
ENDBRANCH  34  36
ENDBRANCH  28  31
ENDBRANCH   4  21
TORSDOF 0
