REMARK SMILES N#C[C@H]1C[C@@H]2CCCC3(CC3)c3cnc4[nH]cc(c4n3)C(=O)N[C@H](C3CC3)C(=O)N2C1
REMARK SMILES IDX 24 1 28 2 29 3 30 4 1 5 2 6 3 7 4 8 31 9 5 10 6 11 7 12
REMARK SMILES IDX 23 14 21 15 22 16 18 18 17 19 19 20 16 21 20 22 15 23 12 24
REMARK SMILES IDX 14 25 13 26 9 28 10 29 11 30 8 31 25 33 26 34 27 35
REMARK H PARENT 23 17 16 27
REMARK Flexibility Score:   67.900
ROOT
ATOM      1  C   UNL     1      -1.957   1.248  -1.048  1.00  0.00     0.175 C 
ENDROOT
BRANCH   1   2
ATOM      2  C   UNL     1      -1.767  -0.287  -1.297  1.00  0.00     0.245 C 
ATOM      3  O   UNL     1      -1.947  -0.749  -2.429  1.00  0.00    -0.272 OA
BRANCH   2   4
ATOM      4  N   UNL     1      -1.461  -1.135  -0.236  1.00  0.00    -0.337 N 
ATOM      5  N   UNL     1      -4.540  -2.743   1.786  1.00  0.00    -0.198 NA
ATOM      6  C   UNL     1      -3.408  -2.492   1.800  1.00  0.00     0.067 C 
ATOM      7  C   UNL     1      -1.970  -2.182   1.838  1.00  0.00     0.114 C 
ATOM      8  C   UNL     1      -1.158  -3.156   0.988  1.00  0.00     0.045 C 
ATOM      9  C   UNL     1      -1.676  -0.835   1.180  1.00  0.00     0.138 C 
ATOM     10  C   UNL     1      -1.252  -2.581  -0.435  1.00  0.00     0.086 C 
BRANCH  10  11
ATOM     11  C   UNL     1      -0.074  -3.011  -1.347  1.00  0.00     0.025 C 
BRANCH  11  12
ATOM     12  C   UNL     1       1.377  -2.812  -0.850  1.00  0.00     0.003 CG0
ATOM     13  G   UNL     1       1.651  -1.363  -0.498  1.00  0.00     0.000 G0
ENDBRANCH  11  12
ENDBRANCH  10  11
ENDBRANCH   2   4
ENDBRANCH   1   2
BRANCH   1  14
ATOM     14  N   UNL     1      -0.866   1.772  -0.238  1.00  0.00    -0.340 N 
ATOM     15  C   UNL     1      -0.637   3.111   0.004  1.00  0.00     0.255 C 
ATOM     16  O   UNL     1      -1.459   3.996  -0.199  1.00  0.00    -0.269 OA
ATOM     17  H   UNL     1      -0.072   1.150  -0.102  1.00  0.00     0.164 HD
BRANCH  15  18
ATOM     18  C   UNL     1       0.704   3.396   0.513  1.00  0.00     0.085 A 
ATOM     19  C   UNL     1       1.194   4.611   0.975  1.00  0.00     0.100 A 
ATOM     20  C   UNL     1       1.794   2.497   0.590  1.00  0.00     0.120 A 
ATOM     21  N   UNL     1       2.521   4.450   1.320  1.00  0.00    -0.344 N 
ATOM     22  N   UNL     1       1.837   1.196   0.241  1.00  0.00    -0.246 NA
ATOM     23  C   UNL     1       2.905   3.159   1.076  1.00  0.00     0.156 A 
ATOM     24  C   UNL     1       3.037   0.581   0.362  1.00  0.00     0.066 A 
ATOM     25  N   UNL     1       4.126   2.615   1.253  1.00  0.00    -0.235 NA
ATOM     26  C   UNL     1       4.132   1.302   0.863  1.00  0.00     0.138 A 
ATOM     27  H   UNL     1       3.138   5.167   1.675  1.00  0.00     0.168 HD
BRANCH  24  28
ATOM     28  C   UNL     1       3.055  -0.901  -0.090  1.00  0.00     0.014 C 
ATOM     29  C   UNL     1       4.256  -1.421  -0.859  1.00  0.00     0.014 C 
ATOM     30  C   UNL     1       4.015  -1.885   0.551  1.00  0.00     0.014 C 
BRANCH  28  31
ATOM     31  C   UNL     1       1.651  -1.363  -0.498  1.00  0.00     0.013 CG0
ATOM     32  G   UNL     1       1.377  -2.812  -0.850  1.00  0.00     0.000 G0
ENDBRANCH  28  31
ENDBRANCH  24  28
ENDBRANCH  15  18
ENDBRANCH   1  14
BRANCH   1  33
ATOM     33  C   UNL     1      -3.310   1.595  -0.474  1.00  0.00     0.021 C 
ATOM     34  C   UNL     1      -4.583   1.122  -1.138  1.00  0.00     0.006 C 
ATOM     35  C   UNL     1      -4.211   2.574  -1.193  1.00  0.00     0.006 C 
ENDBRANCH   1  33
TORSDOF 1
