REMARK SMILES N#CC1CN(C(=O)[C@@H]2NC(=O)c3c[nH]c4ncc(nc34)[C@]3(CC3)COCNC[C@]23CC3)C1
REMARK SMILES IDX 29 1 30 2 31 3 8 4 6 5 1 6 2 7 3 8 4 9 32 10 5 11 7 12 9 13
REMARK SMILES IDX 10 14 11 15 12 17 13 18 20 19 14 20 19 21 15 22 18 23 16 24
REMARK SMILES IDX 17 25 21 27 22 28 23 29 28 31 27 32 26 34 25 35 24 36
REMARK H PARENT 9 16 14 26 27 33
REMARK Flexibility Score:  127.900
ROOT
ATOM      1  C   UNL     1       1.047  -1.437  -1.014  1.00  0.00     0.012 C 
ATOM      2  C   UNL     1       1.061  -1.774  -2.499  1.00  0.00     0.012 C 
ATOM      3  C   UNL     1       1.962  -2.523  -1.561  1.00  0.00     0.012 C 
ENDROOT
BRANCH   1   4
ATOM      4  C   UNL     1       1.701  -0.097  -0.598  1.00  0.00     0.179 C 
BRANCH   4   5
ATOM      5  C   UNL     1       2.500  -0.241   0.722  1.00  0.00     0.245 C 
ATOM      6  N   UNL     1       8.171   0.177   0.457  1.00  0.00    -0.198 NA
ATOM      7  C   UNL     1       7.063   0.495   0.590  1.00  0.00     0.069 C 
ATOM      8  C   UNL     1       5.685   0.888   0.750  1.00  0.00     0.131 C 
ATOM      9  C   UNL     1       4.847   0.004   1.690  1.00  0.00     0.140 C 
ATOM     10  C   UNL     1       4.741   0.460  -0.390  1.00  0.00     0.140 C 
ATOM     11  N   UNL     1       3.842   0.004   0.646  1.00  0.00    -0.338 N 
ATOM     12  O   UNL     1       1.966  -0.524   1.797  1.00  0.00    -0.272 OA
ENDBRANCH   4   5
BRANCH   4  13
ATOM     13  N   UNL     1       0.679   0.913  -0.394  1.00  0.00    -0.340 N 
ATOM     14  C   UNL     1       0.913   2.253  -0.241  1.00  0.00     0.255 C 
ATOM     15  O   UNL     1       2.013   2.771  -0.399  1.00  0.00    -0.269 OA
ATOM     16  H   UNL     1      -0.275   0.615  -0.226  1.00  0.00     0.164 HD
BRANCH  14  17
ATOM     17  C   UNL     1      -0.274   2.984   0.195  1.00  0.00     0.085 A 
ATOM     18  C   UNL     1      -0.340   4.319   0.568  1.00  0.00     0.100 A 
ATOM     19  C   UNL     1      -1.588   2.464   0.375  1.00  0.00     0.120 A 
ATOM     20  N   UNL     1      -1.622   4.593   0.992  1.00  0.00    -0.344 N 
ATOM     21  N   UNL     1      -2.063   1.211   0.140  1.00  0.00    -0.246 NA
ATOM     22  C   UNL     1      -2.389   3.465   0.899  1.00  0.00     0.156 A 
ATOM     23  C   UNL     1      -3.368   1.017   0.463  1.00  0.00     0.068 A 
ATOM     24  N   UNL     1      -3.681   3.335   1.257  1.00  0.00    -0.235 NA
ATOM     25  C   UNL     1      -4.120   2.063   1.020  1.00  0.00     0.138 A 
ATOM     26  H   UNL     1      -1.960   5.478   1.343  1.00  0.00     0.168 HD
BRANCH  23  27
ATOM     27  C   UNL     1      -3.951  -0.371   0.168  1.00  0.00     0.038 CG0
ATOM     28  C   UNL     1      -4.380  -0.609  -1.284  1.00  0.00     0.017 C 
ATOM     29  C   UNL     1      -5.418  -0.536  -0.213  1.00  0.00     0.017 C 
ATOM     30  G   UNL     1      -3.298  -1.516   0.949  1.00  0.00     0.000 G0
ENDBRANCH  23  27
ENDBRANCH  14  17
ENDBRANCH   4  13
ENDBRANCH   1   4
BRANCH   1  31
ATOM     31  C   UNL     1      -0.198  -1.810  -0.213  1.00  0.00     0.092 C 
BRANCH  31  32
ATOM     32  N   UNL     1      -0.677  -3.186  -0.326  1.00  0.00    -0.294 NA
ATOM     33  H   UNL     1      -0.989  -3.337  -1.282  1.00  0.00     0.124 HD
BRANCH  32  34
ATOM     34  C   UNL     1      -1.850  -3.376   0.525  1.00  0.00     0.244 C 
BRANCH  34  35
ATOM     35  O   UNL     1      -2.944  -2.591   0.068  1.00  0.00    -0.365 OA
BRANCH  35  36
ATOM     36  C   UNL     1      -3.298  -1.516   0.949  1.00  0.00     0.175 CG0
ATOM     37  G   UNL     1      -3.951  -0.371   0.168  1.00  0.00     0.000 G0
ENDBRANCH  35  36
ENDBRANCH  34  35
ENDBRANCH  32  34
ENDBRANCH  31  32
ENDBRANCH   1  31
TORSDOF 1
