REMARK SMILES Cc1cnc2nc1-c1cccc(c1)COCC=C1CNC[C@H]3CCN(CCOc4ccc(cc4COC1)N2)C3
REMARK SMILES IDX 29 1 30 2 31 3 32 4 33 5 34 6 38 7 5 9 2 10 3 11 7 12 4 13
REMARK SMILES IDX 6 14 1 15 8 16 9 17 13 18 10 19 12 20 11 21 14 22 15 23
REMARK SMILES IDX 16 24 35 26 36 27 37 28 18 29 17 30 19 32 20 33 21 35 28 37
REMARK SMILES IDX 27 38 26 39 25 40 24 41 39 42 23 43 22 44
REMARK H PARENT 38 8 20 34
REMARK Flexibility Score:  100.800
ROOT
ATOM      1  C   UNL     1      -1.798  -0.514   2.781  1.00  0.00     0.125 A 
ATOM      2  C   UNL     1      -1.549  -1.769   3.338  1.00  0.00     0.049 A 
ATOM      3  C   UNL     1      -0.238  -2.231   3.501  1.00  0.00     0.030 A 
ATOM      4  C   UNL     1       0.861  -1.460   3.106  1.00  0.00     0.042 A 
ATOM      5  C   UNL     1       0.606  -0.201   2.558  1.00  0.00     0.036 A 
ATOM      6  C   UNL     1      -0.707   0.307   2.446  1.00  0.00     0.022 A 
ENDROOT
BRANCH   4   7
ATOM      7  N   UNL     1       2.142  -1.997   3.245  1.00  0.00    -0.324 N 
ATOM      8  H   UNL     1       2.279  -2.692   3.962  1.00  0.00     0.170 HD
BRANCH   7   9
ATOM      9  C   UNL     1       3.346  -1.754   2.595  1.00  0.00     0.227 A 
ATOM     10  C   UNL     1       5.762  -1.463   1.354  1.00  0.00    -0.006 A 
ATOM     11  C   UNL     1       5.599  -2.166   2.529  1.00  0.00     0.120 A 
ATOM     12  C   UNL     1       4.591  -0.944   0.824  1.00  0.00     0.079 A 
ATOM     13  N   UNL     1       4.418  -2.337   3.150  1.00  0.00    -0.221 NA
ATOM     14  N   UNL     1       3.400  -1.051   1.458  1.00  0.00    -0.212 NA
ATOM     15  C   UNL     1       7.108  -1.336   0.720  1.00  0.00     0.048 C 
BRANCH  12  16
ATOM     16  C   UNL     1       4.515  -0.263  -0.479  1.00  0.00     0.001 A 
ATOM     17  C   UNL     1       4.891  -0.915  -1.666  1.00  0.00     0.010 A 
ATOM     18  C   UNL     1       4.012   1.045  -0.576  1.00  0.00     0.016 A 
ATOM     19  C   UNL     1       4.783  -0.279  -2.904  1.00  0.00     0.001 A 
ATOM     20  C   UNL     1       3.897   1.695  -1.815  1.00  0.00    -0.022 A 
ATOM     21  C   UNL     1       4.285   1.019  -2.978  1.00  0.00     0.006 A 
BRANCH  20  22
ATOM     22  C   UNL     1       3.311   3.081  -1.905  1.00  0.00     0.196 C 
BRANCH  22  23
ATOM     23  O   UNL     1       1.993   3.055  -2.451  1.00  0.00    -0.373 OA
BRANCH  23  24
ATOM     24  C   UNL     1       1.017   2.686  -1.471  1.00  0.00     0.188 CG0
ATOM     25  G   UNL     1      -0.337   2.817  -2.096  1.00  0.00     0.000 G0
ENDBRANCH  23  24
ENDBRANCH  22  23
ENDBRANCH  20  22
ENDBRANCH  12  16
ENDBRANCH   7   9
ENDBRANCH   4   7
BRANCH   6  26
ATOM     26  C   UNL     1      -0.885   1.754   2.044  1.00  0.00     0.200 C 
BRANCH  26  27
ATOM     27  O   UNL     1      -0.566   2.014   0.677  1.00  0.00    -0.372 OA
BRANCH  27  28
ATOM     28  C   UNL     1      -1.690   1.811  -0.175  1.00  0.00     0.193 C 
BRANCH  28  29
ATOM     29  C   UNL     1      -1.514   2.423  -1.556  1.00  0.00    -0.033 C 
ATOM     30  C   UNL     1      -0.337   2.817  -2.096  1.00  0.00     0.004 CG0
ATOM     31  G   UNL     1       1.017   2.686  -1.471  1.00  0.00     0.000 G0
BRANCH  29  32
ATOM     32  C   UNL     1      -2.806   2.655  -2.334  1.00  0.00     0.114 C 
BRANCH  32  33
ATOM     33  N   UNL     1      -3.505   1.425  -2.725  1.00  0.00    -0.313 NA
ATOM     34  H   UNL     1      -2.794   0.718  -2.900  1.00  0.00     0.123 HD
BRANCH  33  35
ATOM     35  C   UNL     1      -4.453   0.983  -1.703  1.00  0.00     0.086 CG1
ATOM     36  G   UNL     1      -5.005  -0.455  -1.848  1.00  0.00     0.000 G1
ENDBRANCH  33  35
ENDBRANCH  32  33
ENDBRANCH  29  32
ENDBRANCH  28  29
ENDBRANCH  27  28
ENDBRANCH  26  27
ENDBRANCH   6  26
BRANCH   1  37
ATOM     37  O   UNL     1      -3.046  -0.007   2.542  1.00  0.00    -0.492 OA
BRANCH  37  38
ATOM     38  C   UNL     1      -4.190  -0.876   2.585  1.00  0.00     0.245 C 
BRANCH  38  39
ATOM     39  C   UNL     1      -4.247  -1.923   1.449  1.00  0.00     0.126 C 
BRANCH  39  40
ATOM     40  N   UNL     1      -4.194  -1.310   0.127  1.00  0.00    -0.300 NA
ATOM     41  C   UNL     1      -3.502  -2.115  -0.875  1.00  0.00     0.085 C 
ATOM     42  C   UNL     1      -5.478  -0.936  -0.467  1.00  0.00     0.089 C 
ATOM     43  C   UNL     1      -3.984  -1.546  -2.206  1.00  0.00     0.022 C 
ATOM     44  C   UNL     1      -5.005  -0.455  -1.848  1.00  0.00     0.018 CG1
ATOM     45  G   UNL     1      -4.453   0.983  -1.703  1.00  0.00     0.000 G1
ENDBRANCH  39  40
ENDBRANCH  38  39
ENDBRANCH  37  38
ENDBRANCH   1  37
TORSDOF 0
