REMARK SMILES N#C[C@@H]1CCN(C(=O)[C@@H]2NC(=O)c3c[nH]c4ncc(nc34)C3(CC3)CSC[C@H]3C[C@@H]32)C1
REMARK SMILES IDX 13 1 14 2 15 3 16 4 17 5 18 6 19 7 20 8 21 9 11 11 10 12
REMARK SMILES IDX 12 13 9 15 7 16 8 17 6 18 1 19 2 20 3 21 4 22 31 23 5 24
REMARK SMILES IDX 30 25 29 26 28 27 22 29 23 30 24 31 25 32 26 33 27 34
REMARK H PARENT 15 10 10 14
REMARK Flexibility Score:  106.900
ROOT
ATOM      1  C   UNL     1      -0.322   2.815   0.556  1.00  0.00     0.085 A 
ATOM      2  C   UNL     1      -0.165   4.120   1.005  1.00  0.00     0.100 A 
ATOM      3  N   UNL     1      -1.371   4.556   1.507  1.00  0.00    -0.344 N 
ATOM      4  C   UNL     1      -2.307   3.569   1.371  1.00  0.00     0.156 A 
ATOM      5  N   UNL     1      -3.598   3.626   1.748  1.00  0.00    -0.235 NA
ATOM      6  C   UNL     1      -4.232   2.452   1.449  1.00  0.00     0.138 A 
ATOM      7  C   UNL     1      -3.665   1.326   0.822  1.00  0.00     0.067 A 
ATOM      8  N   UNL     1      -2.357   1.348   0.471  1.00  0.00    -0.246 NA
ATOM      9  C   UNL     1      -1.686   2.488   0.769  1.00  0.00     0.120 A 
ATOM     10  H   UNL     1      -1.559   5.459   1.917  1.00  0.00     0.168 HD
ENDROOT
BRANCH   1  11
ATOM     11  C   UNL     1       0.707   1.966  -0.023  1.00  0.00     0.255 C 
ATOM     12  N   UNL     1       0.352   0.643  -0.096  1.00  0.00    -0.340 N 
ATOM     13  O   UNL     1       1.792   2.392  -0.409  1.00  0.00    -0.269 OA
ATOM     14  H   UNL     1      -0.535   0.355   0.312  1.00  0.00     0.164 HD
BRANCH  12  15
ATOM     15  C   UNL     1       1.202  -0.373  -0.674  1.00  0.00     0.175 C 
BRANCH  15  16
ATOM     16  C   UNL     1       2.331  -0.710   0.339  1.00  0.00     0.245 C 
ATOM     17  O   UNL     1       2.087  -1.004   1.513  1.00  0.00    -0.272 OA
BRANCH  16  18
ATOM     18  N   UNL     1       3.636  -0.680  -0.117  1.00  0.00    -0.340 N 
ATOM     19  N   UNL     1       6.897  -0.553  -3.496  1.00  0.00    -0.198 NA
ATOM     20  C   UNL     1       6.340  -0.349  -2.499  1.00  0.00     0.067 C 
ATOM     21  C   UNL     1       5.629  -0.099  -1.247  1.00  0.00     0.114 C 
ATOM     22  C   UNL     1       5.936  -1.142  -0.172  1.00  0.00     0.042 C 
ATOM     23  C   UNL     1       4.115  -0.222  -1.414  1.00  0.00     0.138 C 
ATOM     24  C   UNL     1       4.739  -1.027   0.759  1.00  0.00     0.121 C 
ENDBRANCH  16  18
ENDBRANCH  15  16
BRANCH  15  25
ATOM     25  C   UNL     1       0.305  -1.531  -1.061  1.00  0.00     0.025 C 
ATOM     26  C   UNL     1       0.761  -2.970  -1.068  1.00  0.00     0.011 C 
ATOM     27  C   UNL     1      -0.242  -2.507  -0.034  1.00  0.00     0.005 CG0
ATOM     28  G   UNL     1      -1.657  -2.993  -0.091  1.00  0.00     0.000 G0
ENDBRANCH  15  25
ENDBRANCH  12  15
ENDBRANCH   1  11
BRANCH   7  29
ATOM     29  C   UNL     1      -4.463   0.047   0.472  1.00  0.00     0.023 C 
ATOM     30  C   UNL     1      -5.900   0.214  -0.018  1.00  0.00     0.015 C 
ATOM     31  C   UNL     1      -5.645  -0.377   1.336  1.00  0.00     0.015 C 
BRANCH  29  32
ATOM     32  C   UNL     1      -3.651  -1.062  -0.201  1.00  0.00     0.083 C 
BRANCH  32  33
ATOM     33  S   UNL     1      -2.679  -1.988   1.026  1.00  0.00    -0.161 SA
BRANCH  33  34
ATOM     34  C   UNL     1      -1.657  -2.993  -0.091  1.00  0.00     0.073 CG0
ATOM     35  G   UNL     1      -0.242  -2.507  -0.034  1.00  0.00     0.000 G0
ENDBRANCH  33  34
ENDBRANCH  32  33
ENDBRANCH  29  32
ENDBRANCH   7  29
TORSDOF 2
