REMARK SMILES CC(C)(C)[C@H]1NC(=O)c2c[nH]c3ncc(nc23)[C@]2(CCCSCC[C@@]3(C#N)CN(C3)C1=O)CC2
REMARK SMILES IDX 9 1 10 2 11 3 12 4 13 5 14 6 15 7 16 8 17 9 7 11 6 12 8 13
REMARK SMILES IDX 5 15 2 16 1 17 3 18 4 19 31 20 32 21 29 22 30 23 28 24 25 25
REMARK SMILES IDX 26 26 27 27 24 28 18 30 34 31 33 32 19 33 20 34 21 35 22 36
REMARK SMILES IDX 23 37
REMARK H PARENT 11 10 6 14
REMARK Flexibility Score:  115.900
ROOT
ATOM      1  C   UNL     1       0.036  -2.577  -0.636  1.00  0.00     0.085 A 
ATOM      2  C   UNL     1      -0.349  -3.612  -1.484  1.00  0.00     0.100 A 
ATOM      3  N   UNL     1       0.782  -4.262  -1.919  1.00  0.00    -0.344 N 
ATOM      4  C   UNL     1       1.887  -3.665  -1.386  1.00  0.00     0.156 A 
ATOM      5  N   UNL     1       3.164  -4.010  -1.634  1.00  0.00    -0.235 NA
ATOM      6  C   UNL     1       4.016  -3.189  -0.959  1.00  0.00     0.138 A 
ATOM      7  C   UNL     1       3.646  -2.144  -0.100  1.00  0.00     0.066 A 
ATOM      8  N   UNL     1       2.340  -1.858   0.115  1.00  0.00    -0.246 NA
ATOM      9  C   UNL     1       1.456  -2.635  -0.559  1.00  0.00     0.120 A 
ATOM     10  H   UNL     1       0.820  -5.048  -2.552  1.00  0.00     0.168 HD
ENDROOT
BRANCH   1  11
ATOM     11  C   UNL     1      -0.820  -1.607   0.032  1.00  0.00     0.255 C 
ATOM     12  N   UNL     1      -2.080  -1.472  -0.514  1.00  0.00    -0.340 N 
ATOM     13  O   UNL     1      -0.451  -0.917   0.977  1.00  0.00    -0.269 OA
ATOM     14  H   UNL     1      -2.268  -1.910  -1.405  1.00  0.00     0.164 HD
BRANCH  12  15
ATOM     15  C   UNL     1      -2.962  -0.391  -0.085  1.00  0.00     0.177 C 
BRANCH  15  16
ATOM     16  C   UNL     1      -4.471  -0.784  -0.108  1.00  0.00    -0.009 C 
ATOM     17  C   UNL     1      -4.972  -1.226  -1.496  1.00  0.00     0.013 C 
ATOM     18  C   UNL     1      -5.324   0.411   0.362  1.00  0.00     0.013 C 
ATOM     19  C   UNL     1      -4.702  -1.950   0.879  1.00  0.00     0.013 C 
ENDBRANCH  15  16
BRANCH  15  20
ATOM     20  C   UNL     1      -2.614   0.803  -1.003  1.00  0.00     0.245 C 
ATOM     21  O   UNL     1      -2.670   0.719  -2.232  1.00  0.00    -0.272 OA
BRANCH  20  22
ATOM     22  N   UNL     1      -2.191   1.947  -0.389  1.00  0.00    -0.338 N 
ATOM     23  C   UNL     1      -1.840   3.224  -0.974  1.00  0.00     0.143 C 
ATOM     24  C   UNL     1      -1.939   2.323   0.984  1.00  0.00     0.143 C 
ATOM     25  C   UNL     1      -1.456   3.699   0.452  1.00  0.00     0.093 C 
ATOM     26  C   UNL     1      -2.310   4.789   0.913  1.00  0.00     0.073 C 
ATOM     27  N   UNL     1      -2.996   5.649   1.282  1.00  0.00    -0.198 NA
BRANCH  25  28
ATOM     28  C   UNL     1       0.019   4.081   0.684  1.00  0.00     0.037 CG0
ATOM     29  G   UNL     1       1.041   3.019   0.264  1.00  0.00     0.000 G0
ENDBRANCH  25  28
ENDBRANCH  20  22
ENDBRANCH  15  20
ENDBRANCH  12  15
ENDBRANCH   1  11
BRANCH   7  30
ATOM     30  C   UNL     1       4.680  -1.253   0.586  1.00  0.00     0.014 C 
ATOM     31  C   UNL     1       5.932  -1.885   1.184  1.00  0.00     0.014 C 
ATOM     32  C   UNL     1       4.848  -1.398   2.092  1.00  0.00     0.014 C 
BRANCH  30  33
ATOM     33  C   UNL     1       4.796   0.145  -0.009  1.00  0.00     0.014 C 
BRANCH  33  34
ATOM     34  C   UNL     1       3.722   1.108   0.521  1.00  0.00     0.012 C 
BRANCH  34  35
ATOM     35  C   UNL     1       3.738   2.423  -0.251  1.00  0.00     0.069 C 
BRANCH  35  36
ATOM     36  S   UNL     1       2.712   3.709   0.537  1.00  0.00    -0.162 SA
BRANCH  36  37
ATOM     37  C   UNL     1       1.041   3.019   0.264  1.00  0.00     0.071 CG0
ATOM     38  G   UNL     1       0.019   4.081   0.684  1.00  0.00     0.000 G0
ENDBRANCH  36  37
ENDBRANCH  35  36
ENDBRANCH  34  35
ENDBRANCH  33  34
ENDBRANCH  30  33
ENDBRANCH   7  30
TORSDOF 1
